# vtk DataFile Version 3.0
axinsert(project(permute(???,2,0,1),0,L2),2)
ASCII
DATASET STRUCTURED_POINTS
DIMENSIONS 128 256 1
ORIGIN 0 0 0
SPACING 1 1 1
POINT_DATA 32768
SCALARS nrrd43877 float
LOOKUP_TABLE default
0.04996511 0.049973294 0.050032016 0.049969018 0.050009176 0.050040007
0.049942005 0.050027613 0.050085228 0.050005004 0.050002176 0.050018005
0.049975447 0.049923029 0.049965072 0.049970221 0.050046258 0.050037999
0.049989115 0.049995005 0.050023209 0.049977008 0.049978491 0.050039042
0.050023019 0.049986999 0.049979135 0.049989007 0.050024118 0.049983066
0.049981419 0.049980029 0.049947426 0.050001521 0.0500875 0.050032072
0.050022155 0.050008021 0.04997509 0.050012019 0.049933046 0.049958345
0.050020181 0.05003329 0.05006 0.049995024 0.049942046 0.050004277
0.049995035 0.050038271 0.050028179 0.049991127 0.050019033 0.050037999
0.049979329 0.049938012 0.050007999 0.049998008 0.050032016 0.050022148
0.049977005 0.049948078 0.050003484 0.050011292 0.050022174 0.05001311
0.050021186 0.050007135 0.049963005 0.050019015 0.050009999 0.049979005
0.049980003 0.04998526 0.049961083 0.050068844 0.050034069 0.049933031
0.049981423 0.050022017 0.049998213 0.049974028 0.050041154 0.05001206
0.050007042 0.050014004 0.050002057 0.050074019 0.050021496 0.049948044
0.049986236 0.049920999 0.049937062 0.050038431 0.050012998 0.050008282
0.04997104 0.05000161 0.050085999 0.050036032 0.050003067 0.050014246
0.049934097 0.049965024 0.049996212 0.049992219 0.050021265 0.049969088
0.049973007 0.05002638 0.050038029 0.049970016 0.049977031 0.050019067
0.050031021 0.049952 0.049974341 0.050050147 0.050019011 0.050016001
0.050002005 0.050013006 0.050036002 0.049989309 0.049989 0.050000157
0.049952026 0.049952026 0.049909156 0.049985006 0.050093018 0.049897999
0.050003003 0.050071001 0.049872018 0.05007403 0.050147016 0.049946126
0.049978081 0.050082274 0.049926002 0.049841359 0.049959004 0.049945094
0.050080001 0.050095122 0.049965024 0.0499781 0.050010122 0.049908239
0.049991533 0.050052002 0.050051954 0.050033037 0.049981304 0.049998004
0.050031375 0.049961004 0.049881484 0.049969226 0.049927354 0.05001013
0.050195348 0.050041072 0.050003681 0.050001103 0.049901746 0.050036207
0.049940448 0.04995707 0.050072022 0.05004102 0.050085057 0.049977086
0.049875207 0.049998112 0.049984172 0.050083127 0.050058238 0.049986213
0.050084144 0.050081074 0.050017223 0.049929999 0.049931001 0.050011251
0.050038006 0.05001444 0.050023027 0.049910035 0.050022006 0.050013002
0.049928073 0.04996556 0.050083239 0.050056256 0.04992006 0.050034191
0.049984217 0.049965627 0.049876269 0.049939524 0.049988668 0.050033692
0.050097544 0.049909599 0.050024971 0.050037026 0.049986962 0.050056152
0.050051041 0.050030496 0.049927082 0.049926776 0.050050661 0.050195448
0.050087422 0.049963117 0.049989067 0.049864102 0.049854044 0.050019085
0.04999714 0.05004821 0.049994018 0.049979083 0.050129041 0.050083186
0.050049011 0.050012019 0.049959037 0.049932152 0.049945086 0.050085999
0.0500081 0.049893029 0.049920999 0.050006043 0.050085001 0.049930077
0.049980056 0.05006402 0.049979001 0.049929436 0.049970016 0.050157156
0.050082192 0.049970001 0.050000001 0.049979009 0.050105032 0.050005998
0.049929 0.04999502 0.04996201 0.04996201 0.04990029 0.050058071
0.050066039 0.049963005 0.049996041 0.049979005 0.049873058 0.050071031
0.050060116 0.049926307 0.049995024 0.050083157 0.04992903 0.049945127
0.049993172 0.049952105 0.050012067 0.049969465 0.049981341 0.049979292
0.049969349 0.049927272 0.050037213 0.050014183 0.049988378 0.050072644
0.050044302 0.04999321 0.049991462 0.049925335 0.049892012 0.050030127
0.049973294 0.049992066 0.050116487 0.050017383 0.049981523 0.049993511
0.049944513 0.05002014 0.050023548 0.050064065 0.050077062 0.050025031
0.050031021 0.049954064 0.049901061 0.05000408 0.049996022 0.050051052
0.049994133 0.049967203 0.050100349 0.050021224 0.050066859 0.050041143
0.049884368 0.050042167 0.050011221 0.049961228 0.050070349 0.049953297
0.050014239 0.050014477 0.04982619 0.049914006 0.050110154 0.050088942
0.049920101 0.049948066 0.049958609 0.049951319 0.049850982 0.049883179
0.050040543 0.049979117 0.050103419 0.050007813 0.050099865 0.049999438
0.049959164 0.050198611 0.049986273 0.049993865 0.049935434 0.049874447
0.050056387 0.05013169 0.050095946 0.050071768 0.049985368 0.049930807
0.049929179 0.050004292 0.050013028 0.050009057 0.050034188 0.04999705
0.050043095 0.05010109 0.050087068 0.049968034 0.050095145 0.049941067
0.049897086 0.050169013 0.049942005 0.049876031 0.049959008 0.050029006
0.050051045 0.049919002 0.050029017 0.05005401 0.049864002 0.04998906
0.050032053 0.050145999 0.050113998 0.049929999 0.049998999 0.049947005
0.050097 0.050021999 0.049906019 0.049982 0.05001802 0.05001802 0.049904145
0.050101038 0.05001203 0.050021026 0.049984999 0.04991506 0.049863081
0.050027058 0.050014235 0.049982291 0.050016057 0.050064318 0.049946133
0.050040185 0.049975999 0.049928356 0.049966998 0.049847569 0.049995229
0.049983591 0.049976386 0.049961291 0.050016347 0.050004344 0.049920488
0.0500797 0.050089471 0.049963363 0.049989652 0.049871363 0.049957138
0.050095111 0.04997354 0.049965084 0.050062563 0.050019383 0.049976684
0.050001524 0.05002572 0.050009154 0.04999765 0.050108336 0.050102443
0.05006019 0.05003823 0.04993818 0.049883235 0.050036218 0.049995095
0.050006341 0.049995299 0.049936157 0.050075378 0.049966492 0.050046701
0.050052565 0.049922988 0.050036415 0.050012384 0.049957473 0.050025266
0.049973089 0.049972102 0.050009504 0.049829368 0.04997531 0.050101463
0.050080769 0.049931809 0.049888425 0.049934234 0.049882717 0.049896751
0.049863897 0.05000861 0.050041419 0.05010036 0.050034653 0.050105009
0.049999569 0.049941901 0.050226577 0.050002795 0.049972121 0.050022721
0.04992152 0.050010335 0.050085779 0.050073557 0.050098933 0.049981404
0.049930628 0.049971294 0.050072409 0.050085064 0.049981121 0.050003044
0.050032299 0.050073002 0.050099041 0.050076082 0.049976058 0.050117012
0.049939107 0.049902011 0.050170042 0.049926028 0.049885031 0.050006002
0.050087009 0.05005002 0.049908008 0.04999901 0.050032035 0.049871001
0.050007015 0.050082002 0.050082173 0.050063122 0.049966 0.050002027
0.049970999 0.050066005 0.049997017 0.049933046 0.050004005 0.050003
0.050003 0.049944002 0.050122004 0.049952015 0.050016098 0.049974043
0.049884152 0.049880095 0.04999312 0.049975198 0.050000258 0.04999616
0.050036453 0.049975295 0.050049227 0.049927462 0.049950693 0.049966224
0.049838729 0.049965125 0.049954168 0.05002439 0.049958564 0.050002582
0.049989548 0.049902838 0.050079495 0.050117783 0.049955383 0.049994916
0.049837429 0.049984209 0.050133236 0.04999299 0.049987145 0.050017517
0.049999427 0.049952723 0.049982656 0.050055929 0.050018515 0.049964774
0.05009665 0.050127964 0.050079517 0.050039895 0.049951509 0.049887609
0.050062399 0.049961377 0.049975697 0.050055586 0.049947314 0.050005455
0.049961895 0.050036393 0.049993016 0.049927264 0.049987298 0.050004043
0.049975406 0.0499538 0.049980305 0.049957052 0.049978439 0.049861647
0.050060958 0.050063487 0.050017882 0.049972747 0.049876358 0.049933698
0.049870968 0.049964286 0.049904075 0.049952623 0.050031781 0.050065327
0.050064407 0.050096646 0.050020479 0.04996432 0.05020291 0.050065577
0.049993288 0.050051913 0.049960203 0.050008569 0.050082877 0.050061472
0.050105948 0.050038423 0.049955316 0.049976133 0.0500983 0.05010711
0.050023261 0.049964018 0.050060321 0.050142001 0.050034035 0.050066158
0.050026052 0.050066005 0.049945317 0.049940005 0.050147094 0.049956005
0.04989801 0.050042003 0.050096001 0.050046999 0.049918007 0.049948014
0.050015066 0.049959999 0.049997073 0.050124001 0.050030116 0.049973037
0.05000101 0.050007008 0.050020002 0.050042022 0.049941018 0.049962059
0.050057005 0.049986001 0.049986001 0.049994022 0.050082002 0.049899053
0.049989138 0.049966119 0.049881253 0.049882121 0.049976312 0.049962185
0.04998932 0.049967207 0.050012585 0.050010402 0.049992334 0.049867958
0.049993694 0.049963642 0.0498899 0.049917229 0.04991141 0.050066516
0.049935065 0.050004896 0.049968056 0.049924199 0.050089687 0.050115097
0.049944829 0.049979415 0.049831048 0.050010268 0.050132677 0.050011687
0.050056566 0.049972814 0.049979988 0.049926989 0.049963091 0.050055087
0.050032049 0.049971968 0.050070837 0.050130092 0.050067835 0.05004029
0.049990844 0.049911812 0.050085574 0.049935609 0.049957652 0.050083689
0.049969666 0.049950611 0.049987052 0.050025459 0.049902309 0.049882408
0.049943965 0.049992841 0.049989372 0.049913876 0.049948841 0.049960464
0.049948972 0.049883045 0.050099656 0.050014924 0.049938723 0.049994554
0.049891595 0.049984947 0.049923297 0.050008547 0.049946792 0.049903121
0.049968325 0.050027292 0.050114922 0.050100386 0.050032787 0.050014134
0.050176021 0.050099436 0.050056804 0.050040137 0.049982913 0.050061788
0.050106063 0.050060481 0.050114945 0.050112393 0.050025269 0.049974028
0.050082214 0.050093114 0.050044235 0.049986068 0.050070021 0.05019005
0.04998 0.050060168 0.050078008 0.050013017 0.049976077 0.049994014
0.050130002 0.049998004 0.049914021 0.05004609 0.050070003 0.050020013
0.049943011 0.049950071 0.049995005 0.050042022 0.049993094 0.050110038
0.050016999 0.049923051 0.050005022 0.050025035 0.050051 0.050027087
0.049874023 0.049982 0.050083 0.049986999 0.049986999 0.050011028
0.050002001 0.049850114 0.049973134 0.049939204 0.049877413 0.049866259
0.049963586 0.049973316 0.049985461 0.049933299 0.049974859 0.050036654
0.049941741 0.04984716 0.050006706 0.04993422 0.049941111 0.049892638
0.049883239 0.050066877 0.049896486 0.049993474 0.049954001 0.04995665
0.050102443 0.050084654 0.049919982 0.049954101 0.049869303 0.050041359
0.050089784 0.050012313 0.050121792 0.04993974 0.049974184 0.049935676
0.049967699 0.050063565 0.050033543 0.050000489 0.050073095 0.050128158
0.050050024 0.050035331 0.050026137 0.049937941 0.050099805 0.04995095
0.049957525 0.050054766 0.049967058 0.049939875 0.049995989 0.050003923
0.049830448 0.049848694 0.049932618 0.049960617 0.049972471 0.049907167
0.049915742 0.049946532 0.049923416 0.049893066 0.050071288 0.049975265
0.049882196 0.049991418 0.049925469 0.050054394 0.04999898 0.050012849
0.049957052 0.0498861 0.049923822 0.050003435 0.050149135 0.050114218
0.050036874 0.050054826 0.050157372 0.050101966 0.050143443 0.050046403
0.050014079 0.050120834 0.050146263 0.050078377 0.050128847 0.050179265
0.050101295 0.049992017 0.050048113 0.050097089 0.050045028 0.05006605
0.050077152 0.050193042 0.049982112 0.050023023 0.050117008 0.050005
0.050018031 0.050027076 0.050124079 0.050027076 0.049961153 0.050022405
0.050030056 0.049996175 0.049966019 0.049971264 0.049972046 0.050078157
0.050005101 0.050046202 0.050033018 0.049920272 0.049985029 0.050043158
0.050053012 0.050007138 0.049841061 0.049997091 0.050050043 0.050009999
0.050009999 0.049985003 0.049921002 0.049799159 0.049950153 0.049885388
0.04985762 0.04984957 0.049952861 0.049992666 0.049989711 0.049890667
0.049925264 0.050032195 0.0499117 0.049870737 0.049987227 0.049901158
0.049987521 0.049902461 0.049867321 0.050034713 0.049850907 0.049939353
0.049955275 0.049982313 0.050099824 0.050042607 0.049904667 0.049936779
0.049932789 0.050057814 0.050035585 0.050004736 0.050132554 0.049930196
0.049992587 0.049983565 0.049974453 0.050078586 0.050037283 0.050037283
0.050113622 0.050140508 0.050042354 0.050021537 0.050048489 0.049965274
0.050084028 0.049997687 0.049984571 0.049991127 0.049951363 0.049964204
0.049976934 0.049967568 0.049790584 0.049869012 0.049946092 0.049903702
0.049920969 0.049894702 0.049903505 0.04990489 0.049897633 0.049894404
0.049999833 0.049947206 0.049855664 0.049975794 0.049969144 0.050103668
0.050060116 0.049995564 0.049933404 0.049921259 0.049941096 0.049994227
0.050132152 0.050130982 0.050058722 0.050071031 0.050154541 0.050098773
0.050221488 0.050084591 0.050064776 0.050164845 0.050200164 0.050124265
0.050145537 0.050229132 0.050149236 0.050039023 0.050028011 0.050141025
0.050073069 0.050158009 0.050085589 0.050162021 0.050006263 0.049973086
0.050135076 0.050041128 0.050052244 0.050032314 0.050125219 0.050041344
0.050025292 0.050001841 0.049996238 0.049992628 0.049973208 0.049974605
0.049953181 0.050080519 0.050007161 0.049969394 0.050039999 0.049914274
0.049967006 0.050044183 0.050046019 0.04998114 0.049849067 0.049998213
0.049986083 0.050048009 0.050048009 0.049936999 0.049854044 0.049747188
0.049900264 0.049819674 0.049831849 0.049827918 0.049938247 0.050003149
0.049980205 0.049848471 0.049882837 0.049980026 0.049876187 0.049906868
0.049965512 0.049894404 0.050026398 0.049923982 0.049851242 0.049997397
0.049827918 0.049854621 0.049965791 0.049990423 0.050082795 0.050006021
0.049914651 0.049938653 0.049980316 0.050054032 0.050004639 0.050009433
0.050089303 0.049939711 0.050036911 0.050043464 0.049963541 0.050084837
0.05006443 0.050075945 0.050162662 0.050163232 0.050048225 0.050017059
0.050061978 0.050004832 0.050043236 0.050039601 0.050028868 0.049929783
0.049954515 0.050005477 0.049944978 0.049918983 0.049774639 0.049921077
0.049964052 0.04985496 0.049856607 0.049858101 0.04988936 0.049852669
0.049871538 0.049882185 0.049930129 0.049916636 0.049844146 0.049955904
0.050006684 0.050126068 0.050092306 0.049988668 0.049906094 0.049992029
0.05000928 0.049996193 0.050084043 0.050158031 0.050110269 0.050077595
0.050175037 0.050108973 0.050264694 0.050130486 0.050115112 0.05020681
0.050267637 0.050192181 0.050173163 0.050258033 0.050168078 0.050113004
0.050045051 0.05020602 0.050133415 0.05022328 0.050095811 0.05011541
0.050022334 0.049948547 0.050137285 0.050078582 0.050078481 0.050025847
0.050127413 0.050053865 0.050064489 0.050009083 0.049991712 0.049986161
0.049961511 0.049963951 0.049953457 0.05007112 0.049976345 0.049909595
0.050008085 0.049891174 0.049963042 0.050018158 0.050041001 0.049964085
0.049873002 0.049986154 0.049930021 0.050074007 0.050074007 0.049885008
0.049794227 0.04970023 0.049828541 0.049758904 0.049812146 0.049790196
0.049914878 0.049999647 0.04994509 0.049812518 0.049856775 0.049897157
0.049830806 0.049931139 0.049948439 0.049910896 0.050031122 0.049922679
0.049835693 0.049971167 0.049840331 0.049784683 0.049977809 0.049979448
0.05006044 0.049983196 0.049943145 0.049958494 0.049991313 0.050039548
0.050006937 0.050028224 0.050038185 0.049960185 0.050092515 0.050092697
0.049947236 0.050088875 0.050116878 0.050103474 0.050188314 0.050184272
0.050065827 0.050046805 0.050075766 0.050060447 0.05000063 0.050057143
0.05007248 0.049900413 0.04998859 0.050043661 0.049915157 0.049878113
0.049780607 0.049950879 0.049960505 0.049830217 0.049803756 0.049814146
0.049849406 0.049803346 0.049848281 0.049854897 0.04989313 0.049876492
0.049839217 0.049935497 0.050026745 0.050127272 0.05009298 0.050012611
0.04990695 0.050060976 0.050085466 0.050014295 0.050058804 0.050206143
0.050180677 0.050096735 0.050213166 0.050140098 0.050271671 0.050170001
0.050155345 0.050253496 0.05034209 0.050255068 0.050220001 0.050270006
0.05018501 0.050199069 0.050091393 0.050270356 0.05019794 0.050242919
0.050114904 0.050067239 0.050031494 0.04996644 0.050138839 0.050094485
0.050098952 0.050023712 0.050126001 0.050061584 0.050062008 0.050045323
0.050013617 0.049949624 0.049942907 0.049962342 0.049982063 0.050052796
0.049919769 0.04986994 0.049938466 0.049875215 0.049971469 0.049963228
0.050023098 0.049959056 0.049890108 0.049960062 0.049893018 0.050067
0.050067 0.049828038 0.049734537 0.049662318 0.049754962 0.049712017
0.049788576 0.049732562 0.04987869 0.049979258 0.049888432 0.049779665
0.04982524 0.049815819 0.04979828 0.049932409 0.049917668 0.049916934
0.049982075 0.049885608 0.049831942 0.04995295 0.049873728 0.049760047
0.049986884 0.049956072 0.050042059 0.049971808 0.049966566 0.049991239
0.049980491 0.050028756 0.050027937 0.050059844 0.050029859 0.049985141
0.050140962 0.050131839 0.049955733 0.050109025 0.050178654 0.050114468
0.050185379 0.050200645 0.050096869 0.050108775 0.050101075 0.050127108
0.04998048 0.050055243 0.050104473 0.0499148 0.050038781 0.05006497
0.049896516 0.04985917 0.049802713 0.04993074 0.049931329 0.049822487
0.049770415 0.049786068 0.049791716 0.049774364 0.04982597 0.049816918
0.049885903 0.04983696 0.049843695 0.0499167 0.050021343 0.050109114
0.050072014 0.0500618 0.049947426 0.050105333 0.050142515 0.050055198
0.050094407 0.050273959 0.050255157 0.050143916 0.050255485 0.050192475
0.0502721 0.050207373 0.050204001 0.050298057 0.050409101 0.050296012
0.050285313 0.050282285 0.050222505 0.050276693 0.050150231 0.050316479
0.050244715 0.050223053 0.05013822 0.05004352 0.050047141 0.050020002
0.05014402 0.050102074 0.050107196 0.050036054 0.050115544 0.050054658
0.050035235 0.050090037 0.050036851 0.049883232 0.049929593 0.049986098
0.050018154 0.05001938 0.049863487 0.049843509 0.049858201 0.049884573
0.049977392 0.049890548 0.049973562 0.049957104 0.049888473 0.049917039
0.049859151 0.050026003 0.050026003 0.049756128 0.049678735 0.049621455
0.049689356 0.049670152 0.0497391 0.049667224 0.049834445 0.049933217
0.049821191 0.049747109 0.049771238 0.049759243 0.049791865 0.049908224
0.049860206 0.049885884 0.049896304 0.04982188 0.049834304 0.049932372
0.049905557 0.049777754 0.04998548 0.049930591 0.05003015 0.049970537
0.04997829 0.050022077 0.049968239 0.050032593 0.050055064 0.05009535
0.050080832 0.050012384 0.050172478 0.050168455 0.050004154 0.050153185
0.050230116 0.050122708 0.050178379 0.05021942 0.050137773 0.050175067
0.050139036 0.050199017 0.049996056 0.050051294 0.050123785 0.04997009
0.050077271 0.050076567 0.049895987 0.049853351 0.049831178 0.049878888
0.049886234 0.049819842 0.049753208 0.049782164 0.049746085 0.049777899
0.049806673 0.049774259 0.049888644 0.049815424 0.049855929 0.04988813
0.049995903 0.050080892 0.050047666 0.050122272 0.050009031 0.05012859
0.050180398 0.050115738 0.050181955 0.050351053 0.050321791 0.050215416
0.050294142 0.050260141 0.050298013 0.050266016 0.050279334 0.050344165
0.050455838 0.050327457 0.050358307 0.050317265 0.050282132 0.050327405
0.050212849 0.050339818 0.050263975 0.050185032 0.050161231 0.05006063
0.050078988 0.050081484 0.050150223 0.050116479 0.050102655 0.050060265
0.05009732 0.050030608 0.05000449 0.050106641 0.050038196 0.049814373
0.049932919 0.050025526 0.050020695 0.049968876 0.049827509 0.049827304
0.049794257 0.049900431 0.049972247 0.049823213 0.049897272 0.049934346
0.049853753 0.049860064 0.049816247 0.049961999 0.049961999 0.049663242
0.049632713 0.0495646 0.049629595 0.049621399 0.04965765 0.049605101
0.049782101 0.049848597 0.049746245 0.049712114 0.049694646 0.049724236
0.04980104 0.04986307 0.049782444 0.049816716 0.049813293 0.049754564
0.049826562 0.049902864 0.049919587 0.049809203 0.049962584 0.049901601
0.05001498 0.04998333 0.04999242 0.050048213 0.049967244 0.050050333
0.050083477 0.050126862 0.050168373 0.050054573 0.05018989 0.050206639
0.050079405 0.050215114 0.050268658 0.050162617 0.050201222 0.050243683
0.050187316 0.050217744 0.05018327 0.050267432 0.050051343 0.050068654
0.050132185 0.050049551 0.050092109 0.050098382 0.049920425 0.049836643
0.049856935 0.049827266 0.049837884 0.049825225 0.04974357 0.049796451
0.049732234 0.049810532 0.0497986 0.049727596 0.04987454 0.04981323
0.049863469 0.049844291 0.049961805 0.050057035 0.050043281 0.050178677
0.050073873 0.050152037 0.0502191 0.050193071 0.050292492 0.050431564
0.05037551 0.050304193 0.050339013 0.050341006 0.050360184 0.050354153
0.05037399 0.050405048 0.050495021 0.050370742 0.050430056 0.050384134
0.050362892 0.050353363 0.050278492 0.050338466 0.050261028 0.050155185
0.050187632 0.050120957 0.050116807 0.050125908 0.050152808 0.050136723
0.050100286 0.050086748 0.050075937 0.049998939 0.049966786 0.050073281
0.050014835 0.04977743 0.049949232 0.050054602 0.049967509 0.049907617
0.049812872 0.049816318 0.0497595 0.049888719 0.049947657 0.049774043
0.049811829 0.049876843 0.04978174 0.049800154 0.049766216 0.049882006
0.049882006 0.049555242 0.049588654 0.049489681 0.049560748 0.049554713
0.049559288 0.049543802 0.049712844 0.0497251 0.049661394 0.049672529
0.049609326 0.049691197 0.049804095 0.049800888 0.049702719 0.049730081
0.049758453 0.049700834 0.049799189 0.049864084 0.049911212 0.049819905
0.049915709 0.049862329 0.049986064 0.050008405 0.050025921 0.05007796
0.049977113 0.050072242 0.050115105 0.050147448 0.050250314 0.050119914
0.050212026 0.050244126 0.050160445 0.050280832 0.050304376 0.050252948
0.050274499 0.0502766 0.050246909 0.050237872 0.050225154 0.050315384
0.050136965 0.050125599 0.050139304 0.050131265 0.050094087 0.050145108
0.049966831 0.049803894 0.049872562 0.049797717 0.04979505 0.049847502
0.049733333 0.049813673 0.049738128 0.049836587 0.049802992 0.049685527
0.049838819 0.0498216 0.049849659 0.049787264 0.049936064 0.05005062
0.050069023 0.050226562 0.05014177 0.050191704 0.050275639 0.050285447
0.050396953 0.050510325 0.050420266 0.05040307 0.05040402 0.050434057
0.050450571 0.050450761 0.050476734 0.050485291 0.050548501 0.050435726
0.05050442 0.05046875 0.050461061 0.050375242 0.050350096 0.05031798
0.050250296 0.050161712 0.050216291 0.050206538 0.05014671 0.050143301
0.050151911 0.050149005 0.050111763 0.0501035 0.050057914 0.04997569
0.049912862 0.049997982 0.049982429 0.0497788 0.049954712 0.050046988
0.049878519 0.049846172 0.049806677 0.049798753 0.049741715 0.049831148
0.049899902 0.049738783 0.049733121 0.049784381 0.049682632 0.04973929
0.049716152 0.04978906 0.04978906 0.049440119 0.049530741 0.049401667
0.049478039 0.049464986 0.049460154 0.049479205 0.04962096 0.04957734
0.049558491 0.049619865 0.04953032 0.04964564 0.049780898 0.049721085
0.049629163 0.049650937 0.049730588 0.049666949 0.049761809 0.049811602
0.049877252 0.049802251 0.049845655 0.049816597 0.049941663 0.050033685
0.050076842 0.050118655 0.050004147 0.05009158 0.050152063 0.05016131
0.050294369 0.050213031 0.050254155 0.050279565 0.050237484 0.05034177
0.05034807 0.05037998 0.050387185 0.050329603 0.050322279 0.050264668
0.050263561 0.050336894 0.050238248 0.050224293 0.050159119 0.05020722
0.050105821 0.050207563 0.050027374 0.049772095 0.049874805 0.049791191
0.04976381 0.049887549 0.049725898 0.049816601 0.049737107 0.049822997
0.049807034 0.049656268 0.049790576 0.049828555 0.049815543 0.049741708
0.049932349 0.050064344 0.050112862 0.05027597 0.050226524 0.050253518
0.050354995 0.050398998 0.050489411 0.050581161 0.050468054 0.05051
0.050499219 0.050540436 0.050558366 0.050536864 0.050574861 0.050587896
0.050627586 0.050521333 0.050583441 0.050553136 0.05057032 0.050416622
0.050421644 0.050300695 0.050257482 0.050213721 0.050244667 0.05028626
0.050168987 0.050141241 0.050153516 0.050139856 0.050130077 0.050105255
0.05004444 0.049963351 0.049846619 0.049913935 0.049957804 0.049799655
0.049918294 0.049990572 0.049796943 0.049796097 0.04978808 0.049753841
0.049714793 0.049745508 0.049830493 0.049697373 0.049655352 0.04967171
0.049576644 0.049675439 0.04966912 0.049684107 0.049684107 0.04932303
0.049447022 0.049306639 0.049381632 0.049357191 0.04936431 0.049410637
0.049511556 0.049425378 0.049436565 0.04954898 0.049459726 0.049583733
0.049722236 0.049620375 0.049551353 0.049593292 0.049706988 0.049641818
0.049727686 0.049744818 0.049821008 0.049768522 0.049762752 0.049774066
0.049896527 0.050043609 0.050120924 0.05016588 0.050051156 0.050113201
0.050193414 0.050176673 0.050301313 0.050319172 0.050318886 0.050314035
0.050316025 0.050404403 0.050405562 0.050514277 0.05051595 0.050410088
0.05042015 0.050327502 0.050307192 0.05034193 0.05033882 0.050351758
0.050207905 0.050287362 0.050140057 0.050259903 0.050091207 0.049768459
0.04986177 0.049802847 0.049758438 0.04993045 0.049726751 0.049794298
0.0497065 0.049758565 0.049787559 0.049645681 0.049747743 0.049826812
0.049778942 0.049732875 0.049953423 0.050088715 0.050154638 0.050334588
0.050341159 0.050340444 0.050456349 0.050534729 0.05058207 0.050643038
0.05053902 0.050625138 0.050619796 0.050660361 0.05067376 0.050621711
0.050671045 0.050705533 0.050723858 0.050615959 0.050670512 0.05062373
0.050678298 0.050486594 0.050487306 0.050313655 0.050307248 0.050297327
0.050261244 0.050335214 0.050197687 0.050138287 0.050153546 0.050108619
0.050136622 0.050092913 0.05003231 0.049954396 0.049788151 0.049854238
0.04993907 0.049808484 0.049828347 0.049895648 0.049753111 0.049757473
0.049738128 0.04966649 0.049657889 0.049663767 0.049741786 0.049629811
0.049567714 0.049553782 0.049478855 0.049596585 0.049611107 0.04957711
0.04957711 0.049205009 0.049339388 0.049202655 0.049271509 0.04924446
0.04925653 0.049334507 0.049396466 0.049281646 0.0492987 0.049454182
0.049393523 0.049514107 0.049630638 0.049501877 0.049460277 0.049550839
0.049668629 0.049606148 0.04969006 0.049662784 0.04974632 0.049732652
0.049684323 0.049746927 0.049874779 0.05003475 0.050134972 0.050202768
0.050113693 0.050146185 0.050232764 0.05020399 0.050296705 0.050421171
0.050398119 0.050348002 0.050401606 0.050482269 0.050478298 0.050630361
0.050633021 0.050515577 0.050537474 0.050438475 0.050370809 0.050365217
0.050435644 0.050481338 0.050292801 0.050393492 0.050199881 0.050273258
0.050145227 0.049810048 0.049839612 0.049826529 0.049790028 0.049953286
0.049739007 0.049747005 0.049641296 0.04966715 0.049734991 0.049646143
0.049720149 0.049817007 0.049758516 0.049775261 0.049997356 0.050119497
0.05017934 0.05039788 0.050476018 0.050451547 0.05057298 0.05068671
0.050696999 0.050709002 0.05064822 0.050751679 0.05075068 0.050790798
0.050800495 0.050729435 0.050779499 0.050829824 0.050823379 0.050708968
0.050765768 0.050682843 0.050770767 0.050575439 0.050544161 0.050370295
0.050403088 0.050384901 0.050265417 0.050343346 0.050243888 0.05015365
0.050149232 0.050064385 0.050122369 0.050074235 0.050009631 0.049933292
0.049752139 0.049821928 0.049909782 0.049780734 0.049702667 0.049787134
0.049748726 0.049717207 0.049650382 0.04953517 0.049567282 0.049607038
0.049632628 0.049521994 0.049466204 0.049439676 0.049399212 0.049487706
0.049530093 0.049478073 0.049478073 0.049092025 0.04922561 0.049082719
0.04914939 0.049139835 0.049125269 0.049243763 0.049279146 0.049148541
0.049152594 0.049336668 0.049324993 0.049446002 0.04951454 0.049380552
0.049363531 0.049509414 0.049604751 0.049545079 0.049626369 0.049572106
0.049652521 0.049687237 0.049626973 0.049740158 0.049892545 0.050023984
0.050114356 0.050212193 0.050172519 0.050189212 0.050258972 0.050241239
0.050309915 0.050507579 0.050476573 0.050389178 0.050490536 0.050576877
0.05056861 0.050725169 0.050725482 0.050629977 0.050660335 0.050584182
0.050468817 0.050441444 0.050541315 0.050594486 0.050404124 0.050533962
0.050277345 0.050239246 0.05018374 0.049895324 0.049820147 0.049860489
0.049852367 0.049932919 0.049755417 0.049685828 0.049544029 0.049576703
0.049663886 0.049638018 0.049701832 0.049804062 0.049772222 0.049862068
0.050055712 0.050159205 0.050191313 0.050442815 0.050604582 0.050580032
0.05069318 0.050846059 0.050843008 0.050799001 0.050803311 0.050893195
0.050887235 0.050929099 0.050947715 0.050883342 0.050914861 0.050954856
0.05091361 0.05080444 0.050863866 0.050745413 0.050844107 0.050668646
0.050591998 0.050462559 0.050521158 0.050452586 0.05026564 0.050311536
0.050293103 0.050190117 0.050134167 0.050019439 0.050094701 0.050054971
0.049964834 0.0498861 0.049728658 0.049795546 0.049851958 0.049712457
0.04957274 0.049689952 0.049761359 0.049670186 0.049534801 0.049380079
0.049457949 0.049567237 0.049488291 0.049374808 0.049352538 0.04933038
0.049340528 0.049344722 0.049433075 0.049394056 0.049394056 0.048993114
0.049124595 0.04894181 0.049013812 0.049056195 0.048970085 0.049132776
0.049148999 0.049018707 0.049009513 0.049202699 0.049248751 0.049377542
0.049380947 0.049269501 0.049281072 0.049448665 0.049515225 0.049462397
0.049520813 0.049486637 0.049539462 0.049610443 0.049602453 0.049744222
0.049945846 0.050039232 0.05007875 0.050188065 0.050205834 0.050225172
0.050263122 0.05027952 0.050354861 0.050579417 0.050550431 0.050443754
0.050569884 0.050676957 0.050666675 0.05081952 0.050802503 0.050729927
0.050772168 0.050732546 0.050605871 0.050586514 0.050671004 0.050685406
0.050515562 0.050693713 0.050366249 0.050175019 0.050212726 0.05001026
0.049823996 0.049900793 0.049915295 0.049855057 0.049751289 0.04962058
0.0494201 0.0494891 0.049597293 0.049593184 0.049670056 0.049793448
0.049820557 0.049971323 0.050112262 0.050213844 0.050207395 0.050450139
0.050694592 0.050707426 0.050802588 0.051005177 0.051012378 0.050920174
0.051002055 0.051053867 0.051042687 0.051082171 0.05112543 0.05107471
0.051075459 0.051081698 0.050993703 0.050907604 0.050965779 0.050828513
0.050907232 0.050751869 0.050634984 0.050565623 0.050626323 0.050498407
0.050270945 0.050247747 0.050308704 0.050233521 0.050115157 0.04998526
0.050075468 0.050032422 0.049892642 0.049798261 0.049687162 0.04975168
0.049765423 0.049619552 0.04945967 0.04961247 0.04976014 0.049619529
0.049419101 0.049235385 0.04935243 0.04951784 0.049295809 0.049200255
0.049229428 0.049229983 0.049301613 0.049181595 0.049338095 0.04931904
0.04931904 0.048915278 0.049049448 0.048793886 0.048868377 0.048995409
0.048807107 0.048994798 0.048992839 0.048891999 0.048883718 0.049063787
0.049164459 0.049296137 0.049234152 0.049176145 0.049227837 0.049358252
0.049406111 0.049379066 0.049391676 0.049423508 0.049416542 0.049488563
0.049611025 0.049741261 0.050003845 0.050095078 0.050054219 0.050144423
0.050205618 0.050239552 0.050250288 0.050304875 0.050423466 0.050647847
0.050620791 0.050522905 0.05062991 0.050765079 0.050759584 0.050932579
0.050889004 0.050809748 0.050866686 0.050855156 0.050777365 0.050797351
0.050837472 0.050769407 0.050600849 0.050833516 0.050463546 0.050119523
0.050245035 0.050133958 0.049860489 0.049941406 0.04992824 0.049717758
0.049701165 0.049547009 0.049272288 0.049379893 0.049541652 0.049494203
0.04959299 0.049779031 0.049891513 0.050078511 0.050149288 0.050275005
0.050245307 0.050421432 0.050734475 0.05081876 0.050902687 0.051162802