# vtk DataFile Version 3.0
axinsert(project(permute(???,2,0,1),0,L2),2)
ASCII
DATASET STRUCTURED_POINTS
DIMENSIONS 128 256 1
ORIGIN 0 0 0
SPACING 1 1 1
POINT_DATA 32768
SCALARS nrrd43877 float
LOOKUP_TABLE default
0.050006136 0.049979128 0.050033011 0.049984042 0.050011139 0.050005104
0.049953111 0.050005019 0.05000703 0.050039105 0.050069291 0.049977053
0.049927138 0.049938243 0.049991265 0.050019175 0.050046138 0.050006006
0.050011046 0.050027013 0.050011005 0.049971003 0.049944244 0.050020058
0.050005045 0.049996 0.050003063 0.050003007 0.049999025 0.049990043
0.050014094 0.049974017 0.049973246 0.050008353 0.050040092 0.050034001
0.050033029 0.05002908 0.049972024 0.049977057 0.049976017 0.049957085
0.050021291 0.050056003 0.05000601 0.049988005 0.049977023 0.050007083
0.050032999 0.050040003 0.050001048 0.049965125 0.049988013 0.050011002
0.05001026 0.049985081 0.050012033 0.049968064 0.049997039 0.050012052
0.049987011 0.049965061 0.050003141 0.05003611 0.050022043 0.05001102
0.050012998 0.049993217 0.049977001 0.050011024 0.049978137 0.049967028
0.050024036 0.049973 0.049957283 0.050088335 0.050006207 0.049952224
0.049960043 0.050015468 0.050037 0.049977046 0.050015036 0.050006025
0.050018013 0.050037079 0.049973048 0.050056078 0.050069015 0.049949273
0.049944147 0.049922999 0.049946059 0.04998035 0.050041381 0.050025038
0.049972065 0.050030258 0.050052002 0.050004035 0.050012007 0.050007131
0.04993711 0.050002076 0.050025024 0.049980033 0.04999603 0.049992058
0.050021 0.05004802 0.050030012 0.049967181 0.049984161 0.050012022
0.050001021 0.049942002 0.049985349 0.050000999 0.050013062 0.050031129
0.049996022 0.050027005 0.049998067 0.049959052 0.050015189 0.050034326
0.04995507 0.04995507 0.049950052 0.049957026 0.050106999 0.049906004
0.049998023 0.050049014 0.049892016 0.050062068 0.050083071 0.05000902
0.050050002 0.050017297 0.049849063 0.049821172 0.049990002 0.050003078
0.050104093 0.05008411 0.049992066 0.050011076 0.050010432 0.049897067
0.049917623 0.050047006 0.05005078 0.050023004 0.050002385 0.050001003
0.050009366 0.049969006 0.049949486 0.04995618 0.049941298 0.05001419
0.050158426 0.050051007 0.050033502 0.050021041 0.049897756 0.050006188
0.049949199 0.049922243 0.050071083 0.050085124 0.05004118 0.049958028
0.049903288 0.05002128 0.050037153 0.050103389 0.05003513 0.049968351
0.050044049 0.050054017 0.050030019 0.049937014 0.049948055 0.049965356
0.049999006 0.05001333 0.050034054 0.04990904 0.050006095 0.050045028
0.04996914 0.049988363 0.050067462 0.050040152 0.049927149 0.050043426
0.049950227 0.049940489 0.049935196 0.049933523 0.049955569 0.050109815
0.050068147 0.049873367 0.049988944 0.050047107 0.050038736 0.050013408
0.050037112 0.050025307 0.04996619 0.049996845 0.050028667 0.050191149
0.050142355 0.049939096 0.049919032 0.049831025 0.049840048 0.049975134
0.050032001 0.050078344 0.049975 0.05001216 0.050135028 0.050048057
0.050057005 0.050019003 0.049898002 0.049961053 0.049995102 0.050057005
0.050009228 0.04991702 0.049966 0.050046179 0.050099008 0.049907036
0.049961142 0.050057042 0.049968019 0.049895432 0.04996701 0.050116174
0.050081126 0.049997006 0.049981009 0.050001014 0.050065044 0.049963042
0.049996 0.050042007 0.049932037 0.049932037 0.049892295 0.050027046
0.050083026 0.049927998 0.049985014 0.050014008 0.049898043 0.050097041
0.050078042 0.049934242 0.049979083 0.050061319 0.049906027 0.049880128
0.050009124 0.049966101 0.050046016 0.050024394 0.049979329 0.049969304
0.049980465 0.04990742 0.050002404 0.050025113 0.050017629 0.050063394
0.05002442 0.049993128 0.049988549 0.049943205 0.049905032 0.050023217
0.049971387 0.049997117 0.050141498 0.050011341 0.049988698 0.049993541
0.049916733 0.050040238 0.049989659 0.050021108 0.050079051 0.050029065
0.050034083 0.049941111 0.04989912 0.050030116 0.050010096 0.050075177
0.050020292 0.049990315 0.050094407 0.050029267 0.050045792 0.04998716
0.049875274 0.050020304 0.050000105 0.049965337 0.050085247 0.049934294
0.050016139 0.050010346 0.049854238 0.049935184 0.050108336 0.050093934
0.04991417 0.049979016 0.049949672 0.049952269 0.049843915 0.04989665
0.050031383 0.050009239 0.050097935 0.049942944 0.050086036 0.050033309
0.049971387 0.050151609 0.050001267 0.050005902 0.049942374 0.049906719
0.050090708 0.050160699 0.050106209 0.050043877 0.049964435 0.049899668
0.049893126 0.050007232 0.049998023 0.050033126 0.050027154 0.049988057
0.050087132 0.050093148 0.050086051 0.049992073 0.050036114 0.049928144
0.049913108 0.050165005 0.049982999 0.049880035 0.049942005 0.050017003
0.050081 0.049902022 0.049998 0.050062999 0.049881004 0.049959153
0.050016057 0.050167013 0.05012203 0.049927 0.049979001 0.049947999
0.050102007 0.050019007 0.049940005 0.049996007 0.050001029 0.050001029
0.049897227 0.050087053 0.05003104 0.049999014 0.049981009 0.049937032
0.049870081 0.050051067 0.050026264 0.049967363 0.050008088 0.050060339
0.049927138 0.049995169 0.049991019 0.049936313 0.049984001 0.049885653
0.049996365 0.049982578 0.049973488 0.049944393 0.05001235 0.050004356
0.049937531 0.050077856 0.050074495 0.04997243 0.049982678 0.049891431
0.04994224 0.050085168 0.049979571 0.049974125 0.050084669 0.05001751
0.049979735 0.050001658 0.049993724 0.050019186 0.050002761 0.050095256
0.050095346 0.050048158 0.050033182 0.049935166 0.049891174 0.050038196
0.050009098 0.050029308 0.049991362 0.049945254 0.050084528 0.049975514
0.050048985 0.050040547 0.049896922 0.05003038 0.05000205 0.049945418
0.050049081 0.049957957 0.049984865 0.05001336 0.04982204 0.049954489
0.05010546 0.050092835 0.049917679 0.049903609 0.049931254 0.049902923
0.049871862 0.049863201 0.050023925 0.050028585 0.050108727 0.05001064
0.05011104 0.050008405 0.049949184 0.050227482 0.049996752 0.049982212
0.050006777 0.049917601 0.050043494 0.050107963 0.050089907 0.05009618
0.04996955 0.049925849 0.049953315 0.050054424 0.050062068 0.049993105
0.050021116 0.050022207 0.050073028 0.050106082 0.050087094 0.049975097
0.050111052 0.049942024 0.049902033 0.050183009 0.049937032 0.049883045
0.04999401 0.050073009 0.050062016 0.049902 0.050005015 0.05003801 0.049851
0.049995001 0.050062016 0.050108112 0.050090082 0.049947999 0.049996011
0.049958006 0.050079003 0.050007004 0.049933027 0.049998999 0.050012998
0.050012998 0.049927033 0.050118007 0.049971022 0.050018083 0.049973022
0.049892128 0.049876101 0.050007116 0.049981274 0.049995322 0.050000172
0.050037473 0.049956303 0.050045237 0.049948264 0.049940687 0.049966149
0.049832795 0.049979214 0.049963109 0.050007489 0.04995656 0.050000571
0.049990568 0.04990181 0.05007768 0.050109793 0.049956482 0.049989931
0.049849484 0.04997934 0.050130244 0.049990971 0.049977168 0.050032642
0.050004505 0.0499608 0.049990717 0.050046962 0.050019443 0.049972855
0.050105624 0.05012092 0.050075471 0.050037749 0.049942452 0.049887531
0.050060403 0.049981341 0.049990717 0.050034627 0.049940344 0.050024562
0.049952932 0.050034612 0.050008055 0.049916372 0.049993087 0.049997099
0.049958158 0.049975883 0.049973171 0.049957 0.04998647 0.049847558
0.05003304 0.05007533 0.050042946 0.049954403 0.049874417 0.049923562
0.049869236 0.049938545 0.049886208 0.04997392 0.050039969 0.050082311
0.050049517 0.050106589 0.050020602 0.049959373 0.050222144 0.050049551
0.049991414 0.050056048 0.049961109 0.050017633 0.050089043 0.050073657
0.050110165 0.050015546 0.0499455 0.049976241 0.0500964 0.050105128
0.050014243 0.049979039 0.050058369 0.050127003 0.050061055 0.050076153
0.050013084 0.05008601 0.049948305 0.049929 0.050164092 0.049950015
0.049898025 0.050035998 0.050099 0.050055001 0.049909003 0.04996001
0.050018068 0.049922001 0.049999058 0.050110999 0.050046165 0.050004087
0.049988005 0.050002016 0.050002001 0.050051019 0.049962014 0.049960054
0.050044004 0.049996 0.049996 0.049976006 0.050097 0.049913041 0.049996145
0.049965106 0.049879234 0.049882121 0.049982268 0.049960222 0.049992342
0.049972247 0.050015617 0.049993441 0.05000833 0.049885921 0.049976807
0.049965583 0.049866963 0.049932241 0.049921524 0.050053567 0.049940024
0.050001893 0.049970996 0.049913213 0.050083712 0.050117131 0.049946774
0.049982395 0.049830928 0.050002404 0.050141592 0.050009638 0.050033469
0.0499878 0.049985874 0.049934 0.049970061 0.050056148 0.050031986
0.049966019 0.050080895 0.050131213 0.050074846 0.050041329 0.049976841
0.049905859 0.050082613 0.04994664 0.049964823 0.050077811 0.049960658
0.049960684 0.049971201 0.050021518 0.049923424 0.049887557 0.049946006
0.049988165 0.049977295 0.049919102 0.04995304 0.049954675 0.049953185
0.049872372 0.050089784 0.050027817 0.049962971 0.049985558 0.049881659
0.049960088 0.049900543 0.049994893 0.0499328 0.049920268 0.049991511
0.05004441 0.050099198 0.050105408 0.050038144 0.050003123 0.050195314
0.050098486 0.050043866 0.050056282 0.049988937 0.050052904 0.05010619
0.050067618 0.050118133 0.050090518 0.05000335 0.049977083 0.050096292
0.050102148 0.0500453 0.049980067 0.050073117 0.050187036 0.050001007
0.050072201 0.05006703 0.05003202 0.049970195 0.049980007 0.05014303
0.049989998 0.049912002 0.050052032 0.050083999 0.050032999 0.04993302
0.049945042 0.050000019 0.050015006 0.049993094 0.05011801 0.050018024
0.049936008 0.050006017 0.050017007 0.050042 0.050033066 0.049895018
0.049982008 0.050082002 0.049989 0.049989 0.05000503 0.050027005 0.0498611
0.049975153 0.049946185 0.049876381 0.049869224 0.049966533 0.049964301
0.049984463 0.049939312 0.049983844 0.050023645 0.049952641 0.04984723
0.050000783 0.049943145 0.049921166 0.049895562 0.049886458 0.050067853
0.049905524 0.049997415 0.049953833 0.049943667 0.050096292 0.050095629
0.049926732 0.049960073 0.049854048 0.050031491 0.050108533 0.050014343
0.05010448 0.04995054 0.049975917 0.04993058 0.049966652 0.050061528
0.050037533 0.049989447 0.05007213 0.05013027 0.050058089 0.050039481
0.050016169 0.04993102 0.050099839 0.049944948 0.049955677 0.050066877
0.049966093 0.049933925 0.049987193 0.050003871 0.049842607 0.049845789
0.049922992 0.049962886 0.049971756 0.049900297 0.049917128 0.049945835
0.049924675 0.049885463 0.050080497 0.049983345 0.049894594 0.049989838
0.049910769 0.05002787 0.049972158 0.050014183 0.049957018 0.049891166
0.049937095 0.050014894 0.050144531 0.05011731 0.050045282 0.050050978
0.050173603 0.050112218 0.050126556 0.050053567 0.050016351 0.050113022
0.050142407 0.050079536 0.050131053 0.050164402 0.050083362 0.049989037
0.050066188 0.050100129 0.050052114 0.050044086 0.050081033 0.050206073
0.049984042 0.050046079 0.050112002 0.050009005 0.050009999 0.050023038
0.050132021 0.05002303 0.049949095 0.050035257 0.050047025 0.050006077
0.049959999 0.049963176 0.049980015 0.05006909 0.050000098 0.050069131
0.050027013 0.049919195 0.049992029 0.050038114 0.050054003 0.050016131
0.049849041 0.049998045 0.050068021 0.050004002 0.050004002 0.04999201
0.049942005 0.04981016 0.049955156 0.049900338 0.04986158 0.049850482
0.049953818 0.049981587 0.049985681 0.049899589 0.049936216 0.050031107
0.049916446 0.049855668 0.049991116 0.049907994 0.049968503 0.049894284
0.049867406 0.050043549 0.049860939 0.049957231 0.049949083 0.049973287
0.050099537 0.050056487 0.049907345 0.049939811 0.049911585 0.05005382
0.050054211 0.05000785 0.050135206 0.049932908 0.049985375 0.049967464
0.049975384 0.050075408 0.050039209 0.050026197 0.050100565 0.050137516
0.050046351 0.050027605 0.050044514 0.049958281 0.050093081 0.049982578
0.049973641 0.050011128 0.049952444 0.049947254 0.049977101 0.049971525
0.04979074 0.049847122 0.049929414 0.049911853 0.049929384 0.049889795
0.049896892 0.049911086 0.049896989 0.04988768 0.050018132 0.049950525
0.049857069 0.049976371 0.049950555 0.050087191 0.050040234 0.050001796
0.049943507 0.049909402 0.049932487 0.05000177 0.050147615 0.050133213
0.050060213 0.050077416 0.050165884 0.050111275 0.050211884 0.05008281
0.050061196 0.050164033 0.050193436 0.050118402 0.050149783 0.050223239
0.050144337 0.050029039 0.050040055 0.050133072 0.050070003 0.050137002
0.050090395 0.050184999 0.05000519 0.049998011 0.05013803 0.050034046
0.050048143 0.050038189 0.050131157 0.050042208 0.050011232 0.050011672
0.05000915 0.049995434 0.049974114 0.04997547 0.049960122 0.050082367
0.050008129 0.049994323 0.050040007 0.049917296 0.049971014 0.050047185
0.050049018 0.049991149 0.049844071 0.05000319 0.050011076 0.050039005
0.050039005 0.049949002 0.049869027 0.04975719 0.049913235 0.049835607
0.049835809 0.04983085 0.049940169 0.049995057 0.049981095 0.049856272
0.049890749 0.049994875 0.04988284 0.04988965 0.049967185 0.04989019
0.050011236 0.049913615 0.049851023 0.050004993 0.049828734 0.049880408
0.049957585 0.049988259 0.050087404 0.050016791 0.04990834 0.049934618
0.04996616 0.050056804 0.050013296 0.050007436 0.050108075 0.049936522
0.050021801 0.050026409 0.049971391 0.050085668 0.050057244 0.050065964
0.05015045 0.050159138 0.050048042 0.050018024 0.050059959 0.049992781
0.050058294 0.05002749 0.050012857 0.049945716 0.049946651 0.049984559
0.049948096 0.049925063 0.04976682 0.049891289 0.049946178 0.049857069
0.049865909 0.049859293 0.04988369 0.049858771 0.049869005 0.049878366
0.049942564 0.049920157 0.049839601 0.049956582 0.049991194 0.05011858
0.050083555 0.049990889 0.04991556 0.04997145 0.049987733 0.050001647
0.050107557 0.050157581 0.050103836 0.050087184 0.050180592 0.050116602
0.050269309 0.05012982 0.050114579 0.050207023 0.050258994 0.050182298
0.050174363 0.050262101 0.050174184 0.050097026 0.050047003 0.050193001
0.050122235 0.050215114 0.050101709 0.050141193 0.050026283 0.049962319
0.05014617 0.050074361 0.050077368 0.050034612 0.050133321 0.050055642
0.050060391 0.050007988 0.049994506 0.049992967 0.049969386 0.04996882
0.049953341 0.050076894 0.049989264 0.049927521 0.050022028 0.049900204
0.049963009 0.050031167 0.050044004 0.049970105 0.049866017 0.049994186
0.049950045 0.050071009 0.050071009 0.049896006 0.049807157 0.049708225
0.049846455 0.049770877 0.049813088 0.049797162 0.049918734 0.049996577
0.049953859 0.049817294 0.049858578 0.049918931 0.049839504 0.04991895
0.049948987 0.049899645 0.050027706 0.049921978 0.049834982 0.049974479
0.049829695 0.049801234 0.049969468 0.049983013 0.050064914 0.049988762
0.04993172 0.049950145 0.049990024 0.050044924 0.050003584 0.050021857
0.050054949 0.049955059 0.05007631 0.050080549 0.049955916 0.050089836
0.050102655 0.050099533 0.050185967 0.050181113 0.050062452 0.050036736
0.05007365 0.050043412 0.050014615 0.050054211 0.050057381 0.049903408
0.049969725 0.050024763 0.049916223 0.049880281 0.04976479 0.049931139
0.049950484 0.049822349 0.049804874 0.04981447 0.049850672 0.049804576
0.049842782 0.049853217 0.04989066 0.04988021 0.049831871 0.049935345
0.050017465 0.050125916 0.050094534 0.050004039 0.049905725 0.050044712
0.050066952 0.050015744 0.050072361 0.050199967 0.05017022 0.050102364
0.050215732 0.050142635 0.050289191 0.050173424 0.050158724 0.050253775
0.050333317 0.050251164 0.050216038 0.050281007 0.050191011 0.050183006
0.050086197 0.050261147 0.050188687 0.050252609 0.050118815 0.050092865
0.050038382 0.049967043 0.050147574 0.050099086 0.050100721 0.050030343
0.050133727 0.05006529 0.050071772 0.050036203 0.050009258 0.049968451
0.049951751 0.049963184 0.049973819 0.050061557 0.049940597 0.049881801
0.049964301 0.049880188 0.049968272 0.049985193 0.050032038 0.049962062
0.049887042 0.049972091 0.049906 0.050075002 0.050075002 0.049840026
0.049746446 0.049666293 0.049770847 0.04971803 0.049791478 0.049744491
0.049884513 0.049981155 0.049903084 0.04978345 0.049829893 0.049834438
0.049801078 0.049927264 0.049924217 0.04991154 0.049996305 0.049895633
0.049826771 0.049953051 0.049857546 0.049760249 0.04997924 0.049963161
0.050044276 0.049973957 0.04995789 0.049979284 0.049984846 0.050031681
0.0500204 0.050049931 0.050030366 0.049978871 0.050128497 0.050123401
0.049955197 0.050103948 0.050163347 0.050116349 0.050191984 0.050200418
0.050090451 0.050090656 0.050094798 0.050107073 0.049985304 0.050056431
0.050094273 0.049902879 0.050015856 0.050052006 0.049891524 0.049852319
0.049781822 0.049926948 0.049928233 0.04980763 0.049762402 0.049776416
0.049794916 0.049764853 0.049817473 0.049816508 0.049873516 0.049837764
0.049831539 0.049914621 0.050020192 0.050112884 0.050078813 0.050045557
0.049934279 0.050098218 0.050133072 0.050049778 0.050088 0.05026374
0.050245617 0.050141424 0.050258879 0.05019084 0.050289337 0.050212719
0.050204083 0.050302248 0.050404999 0.050301012 0.050279096 0.050293095
0.050223194 0.050267328 0.050144807 0.050316919 0.050244335 0.050245527
0.050142013 0.050059959 0.050051805 0.050011344 0.050152496 0.050108414
0.050113644 0.050038498 0.050126877 0.050064217 0.050051723 0.050081722
0.0500344 0.049909987 0.049936317 0.049979791 0.050010741 0.050034191
0.049882215 0.0498523 0.049884919 0.049881414 0.049977057 0.049916416
0.049994368 0.049960077 0.049893335 0.049934041 0.049872097 0.050044999
0.050044999 0.049772095 0.049687702 0.049626421 0.049702276 0.04967415
0.049749982 0.049680065 0.049841326 0.049943008 0.049837764 0.049749814
0.04978377 0.049767673 0.049784638 0.049910903 0.049874689 0.049893234
0.049919236 0.049838994 0.049827021 0.049933452 0.049891144 0.049765673
0.049981415 0.0499372 0.050029974 0.049969077 0.049973264 0.050011594
0.049972173 0.050030179 0.050047245 0.050085977 0.050061982 0.050005693
0.050165735 0.050161574 0.049990386 0.050140761 0.050220612 0.050125163
0.050184086 0.050218105 0.050128479 0.050158858 0.050129581 0.050177895
0.049989652 0.050051443 0.050116509 0.049946174 0.050060224 0.050065495
0.049884968 0.049842447 0.049808171 0.049880985 0.049885176 0.049801961
0.049739234 0.049761437 0.049740311 0.049755495 0.049794149 0.049772035
0.049872249 0.049808189 0.049840789 0.049889911 0.04999873 0.050086677
0.050053585 0.050104242 0.049991801 0.050128452 0.050178044 0.050105438
0.050162531 0.050339639 0.050318155 0.050207749 0.050300349 0.050256345
0.050306018 0.050266147 0.050272092 0.05034801 0.050461419 0.05033616
0.050352778 0.050320733 0.050277334 0.050329573 0.050208092 0.050349757
0.050274387 0.050212156 0.050166726 0.05006374 0.050079148 0.050073482
0.050159309 0.050120533 0.05011265 0.050059393 0.050111227 0.050045814
0.050021611 0.050110985 0.050044719 0.049839914 0.049934395 0.050015979
0.050027143 0.049988706 0.049839143 0.049834024 0.04981488 0.049898099
0.049977001 0.049845967 0.049925033 0.049946241 0.049870681 0.049881052
0.049833227 0.049987003 0.049987003 0.049685217 0.049637754 0.049574576
0.049639571 0.049628362 0.049677547 0.049614906 0.049791023 0.049870275
0.049763773 0.049715664 0.049713109 0.049725577 0.049788628 0.049871434
0.049800735 0.049834859 0.049832132 0.049770005 0.049823537 0.049907073
0.049912348 0.049795087 0.049966171 0.049908921 0.050016373 0.04997639
0.049985066 0.050039578 0.049966957 0.05004384 0.050075352 0.050119415
0.050141148 0.050043315 0.050187971 0.050199393 0.050059505 0.05019813
0.050263844 0.050153576 0.050196022 0.050241224 0.050176166 0.050210439
0.050172806 0.050249144 0.050032757 0.050060671 0.050127916 0.050019551
0.050082956 0.050082255 0.049900424 0.049829692 0.049833849 0.04982629
0.049834944 0.049801353 0.049724802 0.049768675 0.049712561 0.049777038
0.049779985 0.049723286 0.049863081 0.049797866 0.049849171 0.049848832
0.04996454 0.050058708 0.050041206 0.050162606 0.050057594 0.050151795
0.050215803 0.050179791 0.050270043 0.050421946 0.050378822 0.050293393
0.05034411 0.050336089 0.050359048 0.050346013 0.05036461 0.050405551
0.050503407 0.050376069 0.05042721 0.050379239 0.050353684 0.050365068
0.050274331 0.050357949 0.050279126 0.050177865 0.050192561 0.050111614
0.050117232 0.050125584 0.050163396 0.050140481 0.050109927 0.050087418
0.050090626 0.050015658 0.049986564 0.050095275 0.050028224 0.049790632
0.049949363 0.05005087 0.049992889 0.049930323 0.049818385 0.049822956
0.049771097 0.049898271 0.049958576 0.049789771 0.049841668 0.049900662
0.049809773 0.04982112 0.049784236 0.049911998 0.049911998 0.049580265
0.049592685 0.049504682 0.049573746 0.049566671 0.04958215 0.049552705
0.049726721 0.04975779 0.049680933 0.049676009 0.049628749 0.049692668
0.049795438 0.049815003 0.049720716 0.049750172 0.049766377 0.049710456
0.049801446 0.049871475 0.049910199 0.049814843 0.049927127 0.049872633
0.049992289 0.049997356 0.050012328 0.050067328 0.049973723 0.050065894
0.050105747 0.050144173 0.050228793 0.050102104 0.050207999 0.050237585
0.050140381 0.050265376 0.050300263 0.050227579 0.05025313 0.050271943
0.050233707 0.050238423 0.050217856 0.050305929 0.050111338 0.0501034
0.050135147 0.050102152 0.05008791 0.050119035 0.049938824 0.049800951
0.049851552 0.049786728 0.04978627 0.049815673 0.049712729 0.04978295
0.049710523 0.049804945 0.049777228 0.049675994 0.049831253 0.049801089
0.04984016 0.049793631 0.04993375 0.050045237 0.050056923 0.050213333
0.050125528 0.050185397 0.050267395 0.050269078 0.050381478 0.050504595
0.050427526 0.050392203 0.050404008 0.050427001 0.05044429 0.050444379
0.050468255 0.050482631 0.050552715 0.050435763 0.050502315 0.050461568
0.050447747 0.050387632 0.050345603 0.050343193 0.050269917 0.050171886
0.050222378 0.050191779 0.050151456 0.050152652 0.050163988 0.050156392
0.050118167 0.050108768 0.050071541 0.049988966 0.049939416 0.050031643
0.049997445 0.049780533 0.049961474 0.050057184 0.049912836 0.049868558
0.049812034 0.049808241 0.049749341 0.049855683 0.049918823 0.049750574
0.049760051 0.049819224 0.049718671 0.049761247 0.049734171 0.049822036
0.049822036 0.049465168 0.049539715 0.049418703 0.049494974 0.049483955
0.049480949 0.049488217 0.049640711 0.049615163 0.049583074 0.049627453
0.049545676 0.049650338 0.049781073 0.049740199 0.049643863 0.049665969
0.049728647 0.049669251 0.049766064 0.0498229 0.049884088 0.049806017
0.049864959 0.049827855 0.049951918 0.050023839 0.050057989 0.050104838
0.049995501 0.050085187 0.050141405 0.050160028 0.050286654 0.050186872
0.050243936 0.050274875 0.05022021 0.050329108 0.050341789 0.05034557
0.050356317 0.050319623 0.050304782 0.050261989 0.050257415 0.05033727
0.050208773 0.050190844 0.050150018 0.050179012 0.050094739 0.050177552
0.049995281 0.049766131 0.049856894 0.049770173 0.049748115 0.049847782
0.049700294 0.049788974 0.049710453 0.049802281 0.049779128 0.049638521
0.049781937 0.049805954 0.049809933 0.049741127 0.049920157 0.05005208
0.05009678 0.050261654 0.050204352 0.050241176 0.050340757 0.050376516
0.050479837 0.050580367 0.050476227 0.050499059 0.050493047 0.050532155
0.050549842 0.05053721 0.050571147 0.050580025 0.050626487 0.050518088
0.05058204 0.050550643 0.050555933 0.050422847 0.050418828 0.050323863
0.05027039 0.05021039 0.05025281 0.050277144 0.050175369 0.050156031
0.050165132 0.050155696 0.050135192 0.05011623 0.050057858 0.049973421
0.049875971 0.049948171 0.049970202 0.049797952 0.049940724 0.05001672
0.049825117 0.049814999 0.049799252 0.049775112 0.049727462 0.049777079
0.049856272 0.049714211 0.049682278 0.049711633 0.049612626 0.04969839
0.049687129 0.049720097 0.049720097 0.04934705 0.049462937 0.049324669
0.049401458 0.049380191 0.049383033 0.049420606 0.049535174 0.049462263
0.049465183 0.049561672 0.049471006 0.049591541 0.049733333 0.049645562
0.049566973 0.049599253 0.049705029 0.049642596 0.049729533 0.049760565
0.049834311 0.049775705 0.049784802 0.049783077 0.049904853 0.050038092
0.050106924 0.050150752 0.050036043 0.050105527 0.050181504 0.050175
0.050305504 0.050290987 0.050303288 0.050311193 0.050299395 0.050391711
0.05039518 0.050480939 0.050485484 0.050392646 0.050396156 0.050312504
0.050299898 0.050347149 0.050311603 0.05031205 0.050189767 0.050257083
0.050121099 0.050235875 0.050058991 0.049750395 0.049846891 0.049773753
0.049729727 0.049887691 0.049693987 0.049770713 0.049686696 0.04974984
0.049764637 0.049617853 0.049732085 0.049804285 0.049770333 0.049715623
0.049931392 0.050073717 0.050140642 0.05031836 0.050310034 0.050322093
0.050438043 0.050508153 0.050573304 0.050648179 0.050540019 0.050615009
0.050608389 0.050650768 0.05066593 0.050623681 0.05067084 0.050696172
0.050720256 0.050613269 0.050668694 0.050628733 0.05066758 0.050484587
0.050488077 0.050326698 0.050307281 0.050286498 0.050275743 0.050338712
0.05020206 0.050153393 0.050166763 0.050132874 0.050147347 0.050107609
0.050046273 0.049964402 0.0498133 0.049879093 0.04995092 0.049813572
0.049867716 0.049932629 0.049767047 0.049772948 0.049761109 0.049701609
0.049681537 0.049692374 0.049774311 0.0496567 0.049599592 0.049593788
0.04951077 0.049625546 0.049633108 0.049613111 0.049613111 0.049228013
0.049361292 0.049223669 0.049294259 0.049266446 0.049279269 0.049345326
0.049420036 0.049314443 0.049330313 0.049472868 0.049403727 0.049523823
0.049650796 0.049531076 0.04947919 0.049551919 0.049671698 0.049610663
0.049694583 0.049682759 0.049763389 0.049739059 0.049703103 0.049748722
0.049873199 0.050034691 0.05013134 0.050192796 0.050095432 0.050135341
0.050222833 0.050198898 0.050302021 0.050395377 0.050380331 0.050346289
0.050382953 0.050465781 0.050465066 0.050605245 0.050609395 0.050494026
0.050510135 0.050411195 0.050358195 0.050363388 0.050410651 0.050444681
0.050264604 0.050354209 0.050173011 0.05026317 0.050115932 0.049774885
0.049823731 0.049791429 0.049745288 0.049914524 0.049699098 0.049725372
0.049626403 0.04965847 0.049716268 0.049610507 0.049695563 0.049791686
0.049740069 0.049738441 0.049967423 0.050101765 0.050171398 0.050381903
0.050441824 0.050428178 0.050552506 0.050659034 0.050682068 0.050715052
0.050639048 0.050741285 0.050740089 0.050780941 0.050791498 0.050725024
0.050776798 0.050821807 0.05082335 0.050709769 0.050763566 0.050693318
0.050768513 0.050571132 0.050549556 0.050371163 0.050390583 0.050375931
0.050284948 0.050361518 0.050243612 0.050162539 0.05016439 0.050092496
0.050140783 0.050090823 0.050028183 0.049948465 0.049770273 0.049839851
0.049926728 0.049798205 0.049751427 0.049827032 0.049751606 0.04973476
0.049685381 0.049583353 0.049601823 0.049626663 0.049673017 0.049561977
0.049502056 0.049477734 0.049425088 0.049527679 0.049560096 0.049510084
0.049510084 0.049112018 0.049245577 0.049107719 0.04917419 0.049156792
0.049154211 0.049259514 0.049302865 0.04917717 0.049185369 0.0493613
0.049334448 0.049453631 0.04954097 0.04940879 0.049382199 0.049511023
0.049616162 0.049558047 0.049640242 0.049593974 0.049675431 0.049697626
0.049637213 0.049733654 0.049877536 0.050021835 0.050122034 0.050211571
0.050157398 0.050177217 0.05025487 0.05023475 0.050308086 0.050487116
0.050462533 0.050385486 0.050471935 0.050557118 0.050551221 0.050708711
0.050712828 0.050609127 0.050634503 0.050550234 0.050447203 0.050422132
0.050513741 0.050566427 0.050371166 0.050484918 0.050246548 0.050245274
0.050158635 0.049845293 0.04980034 0.049818654 0.049795683 0.04990619
0.049709491 0.049662124 0.049533233 0.049560107 0.049643435 0.049601741
0.049670316 0.049774922 0.049737953 0.049809504 0.050020691 0.050137494
0.050187308 0.050436012 0.050576203 0.050554611 0.050675523 0.050820302
0.050822049 0.050800029 0.050782159 0.050882787 0.050879758 0.050921272
0.05093592 0.050866876 0.050906319 0.050949667 0.050919838 0.050808232
0.050863903 0.050755888 0.050850738 0.050666362 0.050602619 0.050455369
0.050505314 0.050452225 0.05028617 0.05034491 0.050294675 0.050192043
0.050153222 0.050047461 0.050116561 0.050071985 0.049991705 0.049911745
0.049744535 0.049813457 0.049879044 0.049741946 0.049620371 0.049726237
0.049761754 0.049689528 0.049576193 0.049433589 0.049498428 0.049581911
0.049540814 0.049427915 0.049392454 0.049366493 0.049359437 0.049395733
0.049467079 0.049422063 0.049422063 0.04900708 0.049137637 0.048972804
0.049041811 0.049064174 0.049004354 0.049154699 0.049177036 0.049045343
0.049038697 0.049230598 0.049259942 0.04938544 0.049412001 0.049292143
0.049291715 0.049456187 0.049534336 0.049480468 0.049546972 0.049503975
0.049568582 0.049631599 0.049600672 0.049734 0.049920421 0.050027758
0.050088674 0.050196912 0.050199341 0.050217338 0.050267216 0.050274257
0.050343897 0.050563138 0.050538357 0.050437324 0.050556481 0.050659079
0.050650969 0.050803501 0.050795924 0.050716858 0.050753985 0.050702985
0.050574165 0.050546382 0.050636083 0.050667405 0.050487254 0.050643221
0.050333589 0.050189443 0.050189108 0.049951665 0.049792361 0.049854446
0.049857676 0.049842447 0.049707562 0.049590897 0.049410574 0.049464617
0.049566049 0.049563203 0.049638577 0.049758356 0.04977129 0.04990964
0.050078981 0.050186876 0.050201092 0.050458226 0.05068288 0.050687846
0.050793629 0.050984286 0.050990358 0.050915189 0.050973047 0.051040776
0.051031616 0.05107281 0.051107202 0.051050872 0.051063042 0.0510795
0.051006243 0.050910424 0.050967187 0.050834138 0.050918944 0.050754547
0.050647873 0.05056012 0.050619498 0.050505601 0.050289404 0.050292421
0.050326649 0.050235774 0.050135098 0.050009321 0.050092831 0.050049827
0.04992792 0.04983788 0.049712546 0.049776137 0.049801126 0.049655221
0.049500339 0.049643602 0.049766585 0.049639143 0.049457274 0.04928349
0.049390033 0.049537774 0.049363781 0.04926046 0.049271498 0.049263112
0.049314607 0.049236644 0.049369078 0.04934505 0.04934505 0.048920233
0.049053527 0.048822887 0.048897661 0.048996445 0.048841584 0.049023081
0.049029209 0.048916042 0.048904501 0.049090449 0.049176693 0.049308784
0.049268965 0.049190719 0.049227361 0.049375582 0.049430095 0.049394365
0.04942238 0.049431261 0.049445834 0.049521975 0.049597546 0.049735181
0.049979091 0.050070446 0.050058324 0.050157633 0.050209876 0.050239258
0.050259128 0.050303746 0.050406151 0.050633017 0.050611269 0.050509907
0.05062383 0.050753571 0.050747901 0.050911378 0.050879426 0.050805613
0.050857555 0.050839495 0.05073823 0.050740477 0.050795101 0.050755087
0.050585065 0.05079551 0.050430007 0.050128225 0.050219797 0.050073572
0.049816851 0.049891982 0.049886499 0.049717177 0.04966769 0.049514394
0.049260989 0.049355645 0.049499448 0.049474277 0.049572572 0.049739785
0.049832061 0.050017338 0.050123487 0.050247416 0.050232291 0.050441984