# vtk DataFile Version 3.0
axinsert(project(permute(???,2,0,1),0,L2),2)
ASCII
DATASET STRUCTURED_POINTS
DIMENSIONS 128 256 1
ORIGIN 0 0 0
SPACING 1 1 1
POINT_DATA 32768
SCALARS nrrd43877 float
LOOKUP_TABLE default
0.050044101 0.049971163 0.049991369 0.050037187 0.049985088 0.049998008
0.049991034 0.049984135 0.050013058 0.050036047 0.050001059 0.049976032
0.049967036 0.049981192 0.050014138 0.050054096 0.050021 0.050014045
0.050003018 0.049966015 0.049969081 0.050004002 0.050032392 0.050022043
0.049973004 0.050008014 0.049992021 0.049945019 0.049960345 0.050016452
0.05003925 0.050043017 0.050011028 0.049945109 0.050017383 0.050041012
0.049991008 0.050009102 0.049965009 0.049963322 0.050003015 0.050023347
0.049992077 0.049978338 0.049992006 0.050057687 0.049997043 0.049995109
0.049959097 0.050021261 0.050019007 0.049998045 0.050038017 0.049999036
0.04998203 0.049988076 0.05001412 0.049968012 0.049934465 0.049984213
0.050038069 0.050003149 0.049993671 0.050054509 0.049988009 0.049928654
0.050019585 0.050036423 0.050006401 0.050013222 0.049976185 0.04999451
0.049991172 0.049992997 0.050009411 0.050008617 0.050025035 0.049995374
0.050000004 0.050024271 0.050041161 0.050002005 0.0499832 0.049955003
0.050023612 0.049994037 0.04999524 0.05003107 0.050003227 0.049991004
0.049965005 0.050003085 0.050003007 0.050005298 0.049988013 0.049999453
0.050076999 0.050019018 0.049966022 0.050019015 0.049974196 0.04997116
0.050009008 0.050011002 0.05000902 0.049994107 0.049980015 0.050015103
0.050011005 0.049995009 0.049999189 0.049980003 0.049967013 0.049995087
0.050009035 0.050040018 0.050028998 0.049999058 0.050001007 0.049957007
0.049972001 0.050019018 0.050051007 0.050024305 0.049970999 0.049958017
0.050010026 0.050010026 0.050084006 0.050002009 0.050034031 0.050020099
0.049892016 0.050011031 0.049920008 0.050001264 0.050082099 0.050073095
0.049994003 0.049892079 0.049923193 0.049972147 0.050023202 0.050041113
0.050032694 0.050015215 0.050005771 0.049976189 0.049999435 0.04996201
0.050036654 0.050104134 0.05000519 0.04999904 0.049945328 0.049863134
0.049920727 0.050022129 0.050076641 0.050035369 0.050015941 0.049904671
0.050011549 0.050140772 0.049966358 0.049997032 0.04996857 0.049980562
0.049951151 0.049992986 0.050037213 0.049996529 0.0499961 0.05005537
0.049999487 0.049921412 0.050048068 0.050025009 0.050044097 0.049998011
0.050041724 0.049970176 0.049926981 0.049965467 0.050006036 0.049986809
0.049962532 0.049918275 0.049967568 0.050011657 0.049984757 0.050089214
0.049984444 0.049882028 0.050028291 0.050028853 0.050014917 0.050065953
0.049955517 0.049996071 0.049977627 0.049950283 0.050065599 0.050078213
0.050043274 0.050038088 0.049959272 0.049938142 0.050085425 0.049991932
0.049986325 0.049995668 0.050052553 0.050086655 0.050034124 0.049972188
0.0499686 0.050092153 0.049980003 0.049994104 0.04994905 0.049974393
0.049964141 0.050005224 0.050151076 0.050005276 0.049955126 0.050075144
0.049899075 0.049923696 0.050078049 0.050029311 0.049955089 0.049939483
0.050030261 0.050048079 0.049951103 0.049953561 0.050076112 0.050039094
0.049913999 0.049994282 0.050057001 0.050024118 0.050083119 0.050033011
0.049985003 0.050007034 0.049964208 0.049968004 0.050076004 0.050017018
0.049969025 0.049966019 0.049985025 0.049985025 0.050058007 0.050055016
0.050022006 0.049924042 0.049866106 0.050050061 0.049906019 0.050035015
0.050030001 0.049960643 0.05003529 0.049888384 0.049933296 0.049971376
0.050006457 0.049942389 0.049999971 0.049998544 0.050009239 0.050033342
0.050055135 0.049934343 0.049974296 0.050131522 0.050039288 0.049964547
0.049906701 0.049900774 0.049942348 0.050013799 0.050024617 0.049984317
0.0499667 0.04997297 0.05000798 0.050140835 0.049981821 0.049919602
0.050021708 0.050056253 0.04993856 0.049969036 0.050039303 0.050051376
0.050051972 0.049937714 0.050005015 0.049891543 0.050143316 0.050017316
0.049994785 0.050059456 0.049950119 0.049979117 0.049909819 0.049953289
0.049937963 0.05001206 0.050071113 0.049930871 0.049859572 0.049979951
0.050033059 0.0500299 0.05000155 0.049969759 0.049969919 0.049983688
0.050034996 0.050033178 0.050001733 0.050041653 0.049973842 0.049972691
0.05005436 0.050106689 0.050031204 0.050076585 0.049992085 0.049826592
0.050054789 0.050023638 0.050017904 0.050051399 0.050028 0.05012662
0.050090019 0.049933102 0.049992561 0.050168619 0.050028332 0.049927678
0.049911838 0.049996685 0.049982332 0.050024394 0.05010644 0.050022468
0.050004166 0.050018396 0.04987352 0.049946502 0.050104395 0.049997397
0.049946766 0.049919203 0.050097682 0.05008807 0.049883321 0.049966112
0.050121091 0.05010308 0.049929045 0.049993053 0.050058022 0.049926128
0.050096285 0.050088082 0.049961109 0.050100155 0.050026 0.049893036
0.050061032 0.049998004 0.050000034 0.050035 0.049950004 0.049950004
0.050072044 0.050014008 0.049948074 0.049868111 0.049891204 0.050045047
0.049976382 0.050048012 0.049896244 0.049872365 0.050039597 0.049893614
0.049916837 0.049953923 0.050015017 0.049950644 0.049981743 0.049978845
0.050038036 0.05001365 0.049993496 0.049963318 0.049984258 0.050092094
0.050005041 0.049957562 0.049907036 0.049910501 0.049934994 0.049979698
0.049989991 0.050002422 0.049949564 0.050012391 0.050019655 0.050143056
0.049995765 0.049868148 0.050038032 0.050007135 0.04998634 0.05003259
0.049998421 0.050038978 0.050104719 0.049920812 0.050008774 0.049913608
0.050094347 0.049994331 0.049983963 0.050072059 0.049908414 0.049992651
0.049918231 0.04995523 0.049931005 0.049977988 0.050013732 0.049974795
0.049842935 0.049941976 0.050104607 0.050016906 0.049993806 0.049977433
0.049944799 0.050016325 0.050061546 0.049969424 0.050034501 0.050086372
0.050003588 0.049992893 0.049961485 0.050105128 0.050051011 0.050050404
0.050060116 0.049853347 0.050071042 0.050131686 0.050014194 0.050003313
0.050020654 0.050083023 0.050115425 0.050040655 0.05005667 0.050142881
0.049986988 0.0498835 0.049954224 0.050077923 0.050027512 0.049992368
0.050115839 0.050073396 0.049992539 0.049969498 0.049882621 0.049947314
0.050098486 0.049944382 0.050015841 0.04996508 0.050093364 0.050127111
0.049917299 0.050042007 0.050100014 0.050052017 0.049931202 0.050003007
0.05002908 0.049898028 0.050110105 0.050098065 0.049963158 0.050122026
0.050035071 0.049907066 0.050089002 0.050013036 0.049989004 0.050026055
0.049987014 0.049987014 0.050087042 0.049900007 0.04989418 0.049855068
0.049919225 0.049977034 0.05002477 0.050059021 0.049816761 0.049869176
0.049982578 0.04984856 0.049871083 0.049947169 0.050046481 0.050003912
0.049955979 0.049959112 0.050035205 0.049982388 0.049928561 0.049978033
0.050005816 0.050032996 0.049976971 0.049971342 0.049911637 0.049908444
0.049922597 0.04991376 0.049957737 0.050020304 0.04998159 0.050062783
0.050047528 0.050123099 0.049986001 0.049884222 0.050023228 0.049922887
0.049998686 0.050061934 0.04998802 0.050025746 0.050079051 0.04994845
0.050005734 0.049957689 0.050034914 0.049982462 0.050008915 0.050028805
0.049887132 0.049996033 0.049960859 0.049969148 0.049974758 0.049938627
0.0499097 0.04999553 0.049862489 0.049912911 0.050133072 0.0500152
0.049951348 0.049973674 0.049976598 0.050009571 0.050049033 0.049949408
0.050018162 0.050104193 0.050031301 0.049981058 0.04988556 0.050144356
0.05008845 0.049993724 0.050082911 0.049934406 0.050111599 0.050241034
0.050049763 0.049990553 0.050061554 0.05003655 0.050131254 0.050166294
0.050107263 0.050103396 0.049947642 0.049888693 0.049999483 0.050127272
0.050088 0.049964599 0.050106939 0.050081689 0.049980044 0.049994618
0.049924646 0.049968209 0.05008233 0.049929336 0.050048329 0.050031185
0.050068047 0.050115258 0.050010223 0.050103005 0.050055034 0.049992017
0.049951181 0.050035998 0.050029032 0.049911 0.05007302 0.050066095
0.049996093 0.050135005 0.049999077 0.049974069 0.050075013 0.050001115
0.049973998 0.05001815 0.05006 0.05006 0.050058004 0.04981409 0.049896125
0.049843036 0.0499232 0.049905069 0.049992654 0.050051432 0.049810905
0.049910281 0.049932655 0.049812574 0.049804803 0.049908232 0.050044544
0.050030541 0.049943693 0.049951561 0.049991924 0.049976312 0.049908038
0.049936503 0.04999106 0.049973127 0.049974281 0.049989261 0.049901962
0.049915452 0.04991075 0.049876764 0.049947139 0.050009981 0.050003421
0.050106898 0.050094835 0.050090965 0.049990572 0.049938802 0.049975354
0.049874932 0.049972773 0.050012473 0.050011296 0.05004368 0.050036926
0.0499584 0.049978971 0.050000343 0.050022095 0.050004415 0.050030421
0.04997316 0.049891554 0.050009664 0.050000187 0.04996106 0.049984489
0.049908593 0.049858127 0.04999024 0.049898695 0.049892366 0.050090309
0.0500011 0.049890023 0.049968068 0.050021689 0.049986728 0.050013151
0.049961325 0.049986873 0.050078377 0.050021291 0.049982533 0.049889296
0.050177339 0.05010163 0.049966145 0.05008186 0.050017908 0.050154284
0.050294772 0.050133228 0.050027281 0.050113022 0.050024148 0.05013806
0.050257809 0.050161533 0.050090566 0.049956452 0.049902074 0.050009072
0.050149921 0.050136827 0.050005298 0.05009101 0.050064374 0.050004203
0.050041802 0.049986601 0.050023209 0.050056208 0.049948294 0.050049111
0.050087307 0.050057001 0.050058339 0.050092146 0.050133053 0.050032083
0.049975052 0.049988113 0.050078999 0.050034013 0.049913004 0.04999901
0.050046172 0.050039008 0.05013302 0.049969036 0.050036047 0.050060004
0.049978044 0.049970999 0.050037045 0.050098013 0.050098013 0.049975179
0.049804151 0.049931087 0.049817063 0.04989817 0.0498612 0.049897444
0.050024115 0.049850818 0.049921662 0.04990498 0.049829934 0.049750678
0.049847361 0.049993295 0.049997285 0.049947299 0.049937278 0.049945939
0.049975071 0.049909256 0.049876131 0.049952451 0.049930986 0.049970292
0.049996462 0.049901299 0.04992418 0.049905121 0.049879339 0.049946979
0.049996544 0.04999093 0.050107073 0.050132535 0.050066605 0.050006226
0.049979359 0.049929515 0.049888197 0.049953602 0.049954396 0.050044458
0.050059456 0.050018325 0.049951617 0.049933631 0.050027758 0.05002711
0.050036803 0.050029553 0.049937218 0.049927209 0.050017126 0.050015312
0.049942203 0.049938694 0.049901072 0.049862765 0.049960747 0.049929067
0.049874146 0.050014727 0.049978599 0.04983481 0.049939498 0.05005715
0.049989644 0.049961731 0.049972586 0.049963947 0.050030496 0.049980041
0.049990524 0.049951114 0.050177731 0.050112426 0.049985196 0.050099798
0.050088804 0.050174344 0.050315563 0.05021245 0.050082467 0.050145868
0.050041508 0.050152257 0.050307769 0.050220415 0.050113358 0.05000148
0.049929064 0.050015617 0.050157603 0.050164431 0.050081111 0.050088346
0.050060995 0.050062202 0.050102018 0.050059527 0.050072305 0.050050266
0.049971201 0.050042145 0.050142273 0.050055001 0.049996294 0.0501181
0.050136257 0.050050102 0.049976103 0.050023105 0.050107021 0.050010048
0.049917135 0.04996001 0.050075151 0.05008002 0.050102033 0.049971011
0.050058015 0.050079003 0.049972001 0.049975 0.050058004 0.050088003
0.050088003 0.049872451 0.0498491 0.049944121 0.049802169 0.049861144
0.049827393 0.049795393 0.049981363 0.049881883 0.049889222 0.0498804
0.04987362 0.049734972 0.049816564 0.04992611 0.04992272 0.049937345
0.049896166 0.049912654 0.04995181 0.049904633 0.049839955 0.049922325
0.04991347 0.049939752 0.049992669 0.049926981 0.0499257 0.049907096
0.049881648 0.049940377 0.050009012 0.049969524 0.050063513 0.050133936
0.050050095 0.050010584 0.049988337 0.04991965 0.049938031 0.049961012
0.049953751 0.050073277 0.050058965 0.0500204 0.049943808 0.049893636
0.050036591 0.050019532 0.050042093 0.050009869 0.049919818 0.049971182
0.049994975 0.050007209 0.04993267 0.049873501 0.049908929 0.04988043
0.049912702 0.04993913 0.049860053 0.049946751 0.049951527 0.049795177
0.04990216 0.05006735 0.050018359 0.04991864 0.049958751 0.049949806
0.049981534 0.04994183 0.049983881 0.050019175 0.050162427 0.050140783
0.050043125 0.050155617 0.050143499 0.050171554 0.05034468 0.050254147
0.050130539 0.050171614 0.050071377 0.050182521 0.050322179 0.05026532
0.050170109 0.050064486 0.049984187 0.050048959 0.050173104 0.050185468
0.050136521 0.050101742 0.050089214 0.050127175 0.050163165 0.050125606
0.050093513 0.050088465 0.04999017 0.050029308 0.050199229 0.050052051
0.049961261 0.050103117 0.050135348 0.050090093 0.049972139 0.050041106
0.050113093 0.04996711 0.04994826 0.049990006 0.050121035 0.050107013
0.050059017 0.049989007 0.050046001 0.050110023 0.04999001 0.049979001
0.050062023 0.050062001 0.050062001 0.049798451 0.049901042 0.04990619
0.049806323 0.049828164 0.04978459 0.049726494 0.049924217 0.049870152
0.049846686 0.049849689 0.049898263 0.049754616 0.049828827 0.049863353
0.049853053 0.04989928 0.049826019 0.049884867 0.049904782 0.049896367
0.049831789 0.04991059 0.049903981 0.049885049 0.04998653 0.049970262
0.049917277 0.049912736 0.049858212 0.049928788 0.050046459 0.049963485
0.05001349 0.050098572 0.050031971 0.049992356 0.049980801 0.049951732
0.049984403 0.049976364 0.050002117 0.050094739 0.05005553 0.050026745
0.049940348 0.04987473 0.050034605 0.049992718 0.050011512 0.049991891
0.049910937 0.049987108 0.049949236 0.04998171 0.049924329 0.049821522
0.049904183 0.049883205 0.049867682 0.049917795 0.049849451 0.049894549
0.049918741 0.049767468 0.049888015 0.050049338 0.050034519 0.049906939
0.049923826 0.049940638 0.049945328 0.049937822 0.049972806 0.050057616
0.050152827 0.050178107 0.050121367 0.050224122 0.050187431 0.050168458
0.050387051 0.050275818 0.050171051 0.050210044 0.050111271 0.050219364
0.050321836 0.050289303 0.050243191 0.050138172 0.050059799 0.050103139
0.050208386 0.050216302 0.05016458 0.050118852 0.050138194 0.050188091
0.050200175 0.050171867 0.050105739 0.050145645 0.050012313 0.050021403
0.050244272 0.050050188 0.049956251 0.050096147 0.050144237 0.050120082
0.049969137 0.050044063 0.05010315 0.049945112 0.049996138 0.050063003
0.050137002 0.050101005 0.05003101 0.050011016 0.050035998 0.050123014
0.050005998 0.049988013 0.050064012 0.050046001 0.050046001 0.049770214
0.049922023 0.049828246 0.049810477 0.049799271 0.049732793 0.049690682
0.049860165 0.049823456 0.049817946 0.04981482 0.049885649 0.049785331
0.049849149 0.049802218 0.049814541 0.049852688 0.049758743 0.049847867
0.049848869 0.049898472 0.04983063 0.049904834 0.049887866 0.049835581
0.049981993 0.050007738 0.049900178 0.049913477 0.04982033 0.049925718
0.050084122 0.049973853 0.049994852 0.050042808 0.050009638 0.049962714
0.049971581 0.050002009 0.050013922 0.049981248 0.050052818 0.050111927
0.050060358 0.050032753 0.049948264 0.049874302 0.050038032 0.049960073
0.049965993 0.049989451 0.049902003 0.049958695 0.049904518 0.049949076
0.0498938 0.049784139 0.049870435 0.04986801 0.049837701 0.04986427
0.049832731 0.049853671 0.049876947 0.049752183 0.049907807 0.050012004
0.050004464 0.04991886 0.049892195 0.04994408 0.04993571 0.049972638
0.04998545 0.050062247 0.050144803 0.050202832 0.050205994 0.050280713
0.050225481 0.050187133 0.050423808 0.050307825 0.050222158 0.050263088
0.050164968 0.050259829 0.050327137 0.050303217 0.05031047 0.050221365
0.050144721 0.050157115 0.050255429 0.050257247 0.05018853 0.050139744
0.050189983 0.050251022 0.050200012 0.050198127 0.050134815 0.050180644
0.050046597 0.050037328 0.050264325 0.050060261 0.049975201 0.050111111
0.050161116 0.050127067 0.049981125 0.050036017 0.050088152 0.049971052
0.050036009 0.050127 0.050119031 0.050062023 0.050030015 0.050032012
0.050048001 0.050108999 0.049995009 0.05000202 0.050082002 0.050041001
0.050041001 0.049771037 0.049894039 0.049736284 0.049795575 0.049766477
0.049687035 0.049667906 0.049801383 0.049773667 0.04980107 0.049775951
0.049842946 0.049807969 0.049838658 0.049738631 0.049804099 0.049808785
0.049725316 0.049802076 0.049792688 0.049907606 0.049815539 0.049890511
0.049862266 0.049812529 0.049978536 0.050022688 0.049877588 0.049903665
0.049796116 0.049939226 0.0500964 0.049984548 0.050016206 0.049989469
0.049986802 0.049939245 0.049967263 0.050042324 0.050029043 0.049981914
0.050077748 0.050126225 0.050067335 0.050036076 0.049970333 0.049888175
0.050049718 0.049934782 0.049926288 0.049994692 0.049894415 0.049903028
0.049875315 0.049914833 0.049825791 0.049746096 0.04981757 0.049834497
0.049815647 0.049796019 0.049799167 0.049814295 0.049827669 0.049744342
0.04993232 0.049963843 0.049933814 0.049933482 0.049882904 0.0499704
0.049959943 0.050026976 0.050020132 0.050048951 0.050131686 0.050209612
0.050282568 0.050323922 0.050263453 0.050235957 0.050445538 0.050356023
0.050300334 0.050317936 0.050233975 0.050313178 0.050358459 0.0503246
0.050363243 0.050316121 0.05023532 0.050202832 0.050293185 0.050299261
0.05022132 0.050176587 0.050234422 0.050316971 0.050180692 0.050207134
0.050186679 0.050184503 0.050089672 0.050081175 0.050266262 0.050088182
0.050011095 0.050132021 0.05016705 0.050117031 0.050008085 0.050030001
0.050072093 0.050035004 0.050060011 0.050151002 0.050094012 0.050011005
0.05004403 0.050055001 0.050074998 0.050086033 0.049960036 0.050019003
0.050104003 0.050044 0.050044 0.049770001 0.049819063 0.049647346
0.049759623 0.049719747 0.049649343 0.049641207 0.049752846 0.049740903
0.049783263 0.049728267 0.04978339 0.049813613 0.049792554 0.049683146
0.049797699 0.049769457 0.049734946 0.049759869 0.049741112 0.049905285
0.049777623 0.049859799 0.049835209 0.049817871 0.049974766 0.050007198
0.049852811 0.049884308 0.049800653 0.04995979 0.050074708 0.049986348
0.050057754 0.049953129 0.049973886 0.049938437 0.049969371 0.050065331
0.050040714 0.04999686 0.050089784 0.05013819 0.050070271 0.050036155
0.050002355 0.049912024 0.050061367 0.049929846 0.049909256 0.049983889
0.049884137 0.049855359 0.049859397 0.049875952 0.049736276 0.049705576
0.049765922 0.049781535 0.049779873 0.049730074 0.049749337 0.049768951
0.049772579 0.049735446 0.049924605 0.049909394 0.04985268 0.049932394
0.049897764 0.050018001 0.050014567 0.050074123 0.050057389 0.050046671
0.05012178 0.050208408 0.05034053 0.050362676 0.050306384 0.05030293
0.050461851 0.050406769 0.050404575 0.050371688 0.05031094 0.050386526
0.050420705 0.050367992 0.0504077 0.050415613 0.05032992 0.050249476
0.050310668 0.050341155 0.050263789 0.050246332 0.050270665 0.050368853
0.050171353 0.050202809 0.050246421 0.050181299 0.050139375 0.050133049
0.050263103 0.050126046 0.050061006 0.05014002 0.050152007 0.050106
0.050036021 0.050037041 0.050054014 0.05010502 0.050069045 0.050130032
0.050083999 0.049976029 0.050048046 0.050080035 0.050097011 0.050063089
0.049920063 0.050038017 0.050104029 0.050058004 0.050058004 0.049743
0.049718097 0.049564425 0.049705673 0.049654085 0.049612675 0.049604636
0.049712457 0.049727354 0.049760707 0.049670935 0.049718119 0.049795523
0.049727086 0.04965261 0.04978165 0.04973042 0.049763888 0.049734529
0.04969665 0.049880885 0.049728017 0.049804684 0.04981171 0.049833626
0.04996714 0.049970306 0.049831949 0.049862288 0.049831763 0.049978007
0.050033104 0.049979139 0.050086275 0.0499359 0.049979791 0.049966309
0.049974106 0.050077103 0.050057717 0.050030231 0.050113101 0.050154969
0.050072279 0.050033875 0.050035208 0.049944773 0.05005886 0.04994813
0.049919132 0.049947288 0.049868841 0.049838752 0.049839996 0.049826637
0.049650338 0.04967472 0.049730323 0.049712006 0.049715869 0.049668811
0.049691446 0.049707122 0.049711768 0.049712956 0.049869802 0.049849577
0.049784314 0.049912743 0.049927276 0.050071862 0.050082996 0.050100841
0.050075687 0.050074358 0.050140027 0.050217863 0.050372791 0.050406318
0.050363023 0.050370406 0.050488494 0.050451349 0.050517146 0.050434217
0.050393097 0.050473753 0.050509546 0.050437503 0.050456844 0.050508942
0.050418526 0.050312169 0.050322969 0.050394785 0.050317008 0.050344888
0.050301149 0.050391525 0.050187126 0.050188325 0.050298173 0.050196089
0.050191067 0.050173 0.050267003 0.050164007 0.05011902 0.050137185
0.050129019 0.05010011 0.050057005 0.050046187 0.050044019 0.050149176
0.050069086 0.050078146 0.050085008 0.049961127 0.050039023 0.050094102
0.050107017 0.050044116 0.049901061 0.050052099 0.050073054 0.050083004
0.050083004 0.049686003 0.049613182 0.04948651 0.049636811 0.049572449
0.049573071 0.0495582 0.049673166 0.049717087 0.049728502 0.049609065
0.04965318 0.049743839 0.049658328 0.049645234 0.049752399 0.049696647
0.049787521 0.049724348 0.049659163 0.049836706 0.049685244 0.049729235
0.049795773 0.049844038 0.049950708 0.049926255 0.049820963 0.049848787
0.04987029 0.049983464 0.049991325 0.049975287 0.050081268 0.049936358
0.050007135 0.050016686 0.049980454 0.050085451 0.050086018 0.05007584
0.050153956 0.050180111 0.050080776 0.050039601 0.050062109 0.049987547
0.050039254 0.049978431 0.049950335 0.049892969 0.049858168 0.049850073
0.049808536 0.049767435 0.049587097 0.049662538 0.049706582 0.049634721
0.049626168 0.049601454 0.049626138 0.049627434 0.049646422 0.049673621
0.049784783 0.049785551 0.049736656 0.049880669 0.049954165 0.050113194
0.050140005 0.050117478 0.050080854 0.050136078 0.050200157 0.05024799
0.050386466 0.050462898 0.050438676 0.050433684 0.050535135 0.050498508
0.050617345 0.050507177 0.050477941 0.050564516 0.050613515 0.050528962
0.050518606 0.050586145 0.050492909 0.050400794 0.050350189 0.050468139
0.050384343 0.050443351 0.050337005 0.050379131 0.050222021 0.050179016
0.050335016 0.050232004 0.050238013 0.050196119 0.050277047 0.050193176
0.050170131 0.050141461 0.050118208 0.050091434 0.050065134 0.050054453
0.050048187 0.050159555 0.050054178 0.050016358 0.050074004 0.049955186
0.050032005 0.050086152 0.050104003 0.050029095 0.049909014 0.050049152
0.050022032 0.050109003 0.050109003 0.049609032 0.04951537 0.049412604
0.049553115 0.049484834 0.049526535 0.049498826 0.049626049 0.049699057
0.049681779 0.049547691 0.049592681 0.049661707 0.049593002 0.049646191
0.049713157 0.049671292 0.049783222 0.049710512 0.04962955 0.049785025
0.049664062 0.049653888 0.04978355 0.049837645 0.049925495 0.049886405
0.049822718 0.049852446 0.049896333 0.049977753 0.04996819 0.049982615
0.050054502 0.049948104 0.050052747 0.050077613 0.04998859 0.05009805
0.050132703 0.050121535 0.05019661 0.050211918 0.050104108 0.050066736
0.050089326 0.050043497 0.050013851 0.050005361 0.049992085 0.049849752
0.049861126 0.049875218 0.049767304 0.049704801 0.049549684 0.049652986
0.049676459 0.049559906 0.049526807 0.049521897 0.049548112 0.049534913
0.04957471 0.049613521 0.049697425 0.049716208 0.049702551 0.04984257
0.049967285 0.050130323 0.050167907 0.050140522 0.050092805 0.050215721
0.050292078 0.050302036 0.050403863 0.050535828 0.050535727 0.050499558
0.050604686 0.05056053 0.050694112 0.05058923 0.050566647 0.050655507
0.050722588 0.050630119 0.050595067 0.05064819 0.050554898 0.05050816
0.050406482 0.050555404 0.050467022 0.05051402 0.050378032 0.050353017
0.050264005 0.05019616 0.050358061 0.050276291 0.050275244 0.05020855
0.050289337 0.05021162 0.050202429 0.050164804 0.050124746 0.050070923
0.050061461 0.050065856 0.050068617 0.050147139 0.050021429 0.049964659
0.050036155 0.049954232 0.050031185 0.050050221 0.050087027 0.050021078
0.049929019 0.050028127 0.049970999 0.050119005 0.050119005 0.04952009
0.049425673 0.049341727 0.049458586 0.049401168 0.049471103 0.049425535
0.0495691 0.049663205 0.049616612 0.049487699 0.049532771 0.049565252
0.049533822 0.049637593 0.04966376 0.049647588 0.049741384 0.049674008
0.049605317 0.04973885 0.049664024 0.049600109 0.049773458 0.049816079
0.049895532 0.049858321 0.049831457 0.049869094 0.04990356 0.049966268
0.049968779 0.050004967 0.050038427 0.049970198 0.050103888 0.050138496
0.050008755 0.050121978 0.050193951 0.050160695 0.050228879 0.050246425
0.05014316 0.050120402 0.050124172 0.050113637 0.05000094 0.050020706
0.050031364 0.049839377 0.049882952 0.049897294 0.049728345 0.049649626
0.049531359 0.049623236 0.049624171 0.049491379 0.049432281 0.049438126
0.049453594 0.049444027 0.049499683 0.049534012 0.049623586 0.049645968
0.049674664 0.049803022 0.049959853 0.050123375 0.050167121 0.050182078
0.050131552 0.050297923 0.050393745 0.050377056 0.050452061 0.050631307
0.050651528 0.050582629 0.050689552 0.050647207 0.050757289 0.050680339
0.050661895 0.050748661 0.05083032 0.050726905 0.050687525 0.050705131
0.050617717 0.050618373 0.050488036 0.050638005 0.050547082 0.050546154
0.050421149 0.050339475 0.05030515 0.050243944 0.050376546 0.050313186
0.050300889 0.050224476 0.050293151 0.050217446 0.050208133 0.050204348
0.050142676 0.050031528 0.050057042 0.050086502 0.05009542 0.050117783
0.049976949 0.049931109 0.049975667 0.049960416 0.050034761 0.049992401
0.050052252 0.050014105 0.049940202 0.049992077 0.049927041 0.050101001
0.050101001 0.049420193 0.049343981 0.049270902 0.049362134 0.049324464
0.049401768 0.049341388 0.049501225 0.049601581 0.04953298 0.049429055
0.049463466 0.049472552 0.049488686 0.049607523 0.049597889 0.049606733
0.04966611 0.049608327 0.049579956 0.049696799 0.049675029 0.049580101
0.049759977 0.04978279 0.049865227 0.049842585 0.049841721 0.049894229
0.049898569 0.049958017 0.049986582 0.05003874 0.050057773 0.050004523
0.050149161 0.050191965 0.050051238 0.050163798 0.050262026 0.05020006
0.050252475 0.050283477 0.050197441 0.050192494 0.050173674 0.050195038
0.050017789 0.05003164 0.050062906 0.049870681 0.049914986 0.049910467
0.049701516 0.049603142 0.049521282 0.049562622 0.049544327 0.049428862
0.049347319 0.049359292 0.049351402 0.049366452 0.049422659 0.049437631
0.049559545 0.04957762 0.049647368 0.049755875 0.049930476 0.050099697
0.050153695 0.050239556 0.050200809 0.050372247 0.050488167 0.050472774
0.05055001 0.050750148 0.050774343 0.05069166 0.050785422 0.050758071
0.050826762 0.050785929 0.050773475 0.050846424 0.050931443 0.05081749
0.050793406 0.050772272 0.050697021 0.050716005 0.050583169 0.05070544
0.050608546 0.050549969 0.050467517 0.050357684 0.050350882 0.050312527
0.050394833 0.050344855 0.050317336 0.050251156 0.050289899 0.050208926
0.050193612 0.0502364 0.050153952 0.04998244 0.050063074 0.050117586
0.050108645 0.050076418 0.049936816 0.049911778 0.049912579 0.049967941
0.050033607 0.049926832 0.04999477 0.049998239 0.049923498 0.049944069
0.049887147 0.050053 0.050053 0.049307313 0.049267147 0.049192101
0.049267601 0.049247786 0.049309526 0.049250424 0.049421363 0.049507275
0.049433757 0.049367819 0.049378779 0.049391534 0.049456924 0.049557246
0.049515635 0.049537886 0.049572103 0.049525745 0.049548212 0.049654111
0.04967805 0.049584493 0.04973628 0.049741663 0.049831845 0.049838383
0.049854953 0.049920689 0.049893629 0.049959399 0.050013978 0.050073531
0.050115131 0.050056029 0.050186969 0.050240479 0.050120115 0.050228387
0.050329328 0.050255317 0.050289236 0.050326001 0.050264474 0.050267946
0.050234549 0.050281756 0.050073404 0.050056629 0.050085347 0.049934771
0.049943283 0.049923755 0.049696609 0.049559552 0.049509387 0.049480267
0.049443107 0.049370103 0.04926705 0.04928752 0.049251083 0.049302451
0.049345143 0.04932791 0.049486857 0.049516123 0.049614515 0.049697258
0.049885962 0.050071929 0.050147086 0.050307475 0.050293345 0.050442606
0.05057741 0.050587907 0.05069169 0.050888259 0.050897349 0.050828125
0.05089369 0.050892226 0.050923839 0.050910581 0.050906807 0.05095553
0.051029354 0.050905373 0.05091 0.050858013 0.050801415 0.050794695
0.050684202 0.050748121 0.050646622 0.050546739 0.050518673 0.050412912
0.050399981 0.050380073 0.050414357 0.050371479 0.050333008 0.050281882
0.05027882 0.050190438 0.050164182 0.050237335 0.050148614 0.049944025
0.050077874 0.050146267 0.050085284 0.050026204 0.049911074 0.04990074
0.049863786 0.049964946 0.050018381 0.049868543 0.049921431 0.049957562
0.049871694 0.049888112 0.049844213 0.049980003 0.049980003 0.049179368
0.049190182 0.049100269 0.049169954 0.049160156 0.049197417 0.049157478
0.049329523 0.04937819 0.049319722 0.049301974 0.049280547 0.049319733
0.04942989 0.049486998 0.049421288 0.049443051 0.049480766 0.049443994
0.049506966 0.049603257 0.04966113 0.049588639 0.049695235 0.04969006
0.049791217 0.049841285 0.049875345 0.049949933 0.049898542 0.049969681
0.050045155 0.050104495 0.050188452 0.050128423 0.05022544 0.05028791
0.050207362 0.050310187 0.050394174 0.050340693 0.050363515 0.050384246
0.050345302 0.050336801 0.050302278 0.050360937 0.050165396 0.050116163
0.050110381 0.050017815 0.049965691 0.049948912 0.049715474 0.049511883
0.049487349 0.049394064 0.049331971 0.049313899 0.049181789 0.049213551
0.049154419 0.049231682 0.049263842 0.049210023 0.049392261 0.049456254
0.049567368 0.049624048 0.049837962 0.050053593 0.05016309 0.050380982
0.050400667 0.050523646 0.050676327 0.050727628 0.050859869 0.051036965
0.051018439 0.050985977 0.051022239 0.051044557 0.051056374 0.051053636
0.051060796 0.051079392 0.051135 0.051004004 0.051034454 0.050969705
0.050924998 0.05086273 0.050783392 0.050769106 0.050670732 0.050562862
0.050573479 0.050497476 0.050448146 0.050430875 0.050432462 0.05039528
0.050351057 0.05031088 0.05026779 0.050170358 0.050120875 0.050201468
0.050131004 0.049929783 0.050089777 0.050150529 0.0500273 0.049972519
0.049898773 0.049886093 0.049832098 0.049934335 0.049983941 0.049820393
0.049839977 0.049885049 0.049788721 0.049828213 0.049799196 0.049890026
0.049890026 0.049038298 0.049105234 0.048993345 0.049065322 0.049054563
0.049072504 0.049063433 0.049220897 0.049221091 0.049188636 0.049225293
0.049178697 0.049245771 0.049390666 0.049397644 0.049319122 0.049338117
0.04940464 0.049377464 0.049457356 0.049540542 0.049617302 0.049574632
0.04963262 0.049631611 0.049739957 0.049840234 0.049904611 0.049983557
0.049921352 0.049987778 0.050080165 0.050130289 0.050249431 0.050217584
0.050279841 0.050338119 0.050302111 0.050400257 0.050461762 0.050459702
0.050482165 0.050467685 0.050445721 0.05041036 0.050376669 0.050428603
0.050282195 0.050220467 0.050150931 0.050108958 0.049988806 0.049989685
0.049753197 0.049464133 0.049450789 0.049318817 0.049224835 0.04926011
0.049089614 0.049122136 0.049048644 0.049128618 0.049167093 0.049090136
0.049275476 0.049391519 0.049501847 0.049549486 0.049801495 0.050052729
0.050204977 0.050462052 0.050526623 0.050629612 0.050798908 0.050894301