# vtk DataFile Version 3.0
axinsert(project(???,0,L2),2)
ASCII
DATASET STRUCTURED_POINTS
DIMENSIONS 256 1 1
ORIGIN 0 0 0
SPACING 1 1 1
POINT_DATA 256
SCALARS nrrd50571 float
LOOKUP_TABLE default
0 0 0 0 0 0 0 0 0 0 0 0 0 0 0 0 0 0 0 0 0 0 0 0 0 0 0 0 0 2.4494898e-06
1.8867962e-05 0.00013509997 0.00094680517 0.0062962463 0.038870558
0.21490701 0.97543997 2.296808 1.4380537 1.5381796 1.3548517 0.94170237
1.1588163 1.5647243 1.8229626 1.7571672 1.5246307 1.8025618 1.7556038
1.6461191 2.0400419 2.4765682 2.0955501 1.626326 1.2971541 1.1059927
1.0007637 0.93804753 0.89601606 0.86538053 0.84156805 0.82222027 0.80574727
0.79103845 0.77731723 0.76432729 0.7520045 0.74039346 0.72952467 0.71937186
0.70988005 0.70096445 0.69254065 0.68457532 0.67706555 0.66998941
0.66329306 0.65689462 0.65070063 0.64476657 0.63871658 0.63283384
0.62676018 0.62088501 0.61490071 0.60872179 0.60234654 0.5959155 0.58964813
0.58405209 0.57876855 0.57450652 0.57120484 0.56813645 0.56508768
0.56168771 0.55748183 0.55241317 0.5475446 0.54271853 0.5386979 0.53633857
0.53478658 0.53436679 0.53440094 0.53225017 0.52747583 0.52192026
0.51538289 0.51102 0.50934201 0.50826007 0.50430667 0.49263114 0.47754124
0.45764244 0.44735929 0.49909589 0.56652975 0.60515267 0.64270645
0.69143182 0.72374666 0.73798084 0.73445427 0.72228384 0.69954777
0.63745475 0.63745475 0.62134141 0.6316421 0.66954952 0.62525755 0.53117889
0.45918176 0.42612422 0.39796919 0.3597849 0.31694281 0.28308898 0.26255107
0.25280625 0.24834697 0.24619278 0.24744791 0.25342163 0.26304314
0.27439937 0.28451848 0.29085436 0.29157221 0.28674141 0.27567136
0.26041394 0.24561056 0.23407207 0.2266168 0.22322682 0.22489442 0.23479643
0.25054252 0.27195287 0.29574114 0.31704518 0.33878857 0.36713713
0.40227595 0.44308257 0.48651206 0.53271198 0.58238637 0.6351651 0.68888307
0.74062645 0.7883628 0.83004075 0.86299455 0.88918924 0.90697265 0.91433835
0.91084915 0.89663976 0.87286228 0.84283328 0.81132787 0.78151613
0.75506508 0.73145604 0.70554602 0.6712321 0.62366635 0.56099021 0.49675274
0.43896243 0.386612 0.33622235 0.28506979 0.22795513 0.15367429 0.072076708
0.016631907 0.0015709605 0.00013390295 9.6953599e-06 0 0 0 0 0 0 0 0 0 0 0
0 0 0 0 0 0 0 0 0 0 0 0 0 0 0 0 0 0 0 0 0 0 0 0 0 0 0 0 0 0 0 0 0 0 0 0 0 0
0 0 0
