# vtk DataFile Version 3.0
axinsert(project(???,0,L2),2)
ASCII
DATASET STRUCTURED_POINTS
DIMENSIONS 256 1 1
ORIGIN 0 0 0
SPACING 1 1 1
POINT_DATA 256
SCALARS nrrd82758 float
LOOKUP_TABLE default
0 0 0 0 0 0 0 0 0 0 0 0 0 0 0 0 0 0 0 0 0 0 0 0 0 0 0 0 0 2.4494898e-06
1.9261361e-05 0.00013491108 0.00094707921 0.0063036405 0.038939644
0.21523449 0.97597176 2.2962015 1.4376408 1.5380315 1.3549716 0.94160134
1.1586149 1.564766 1.8230397 1.7572384 1.5244321 1.8021872 1.7552084
1.6459627 2.040741 2.4767058 2.0949833 1.6249272 1.2951357 1.1043557
1.000247 0.93920243 0.89895368 0.86960781 0.84612572 0.82617569 0.80846179
0.79238993 0.77763999 0.76410669 0.75156403 0.73990542 0.72903079
0.71885914 0.70930624 0.70027548 0.69170195 0.68357396 0.67591053
0.66869563 0.66187274 0.65544564 0.64922202 0.64303702 0.6369096 0.63089281
0.62484121 0.61882067 0.61296433 0.60743219 0.60222435 0.59748167
0.59289891 0.58813745 0.58268863 0.5765481 0.56994402 0.56327504 0.55713177
0.55247915 0.54975927 0.54896015 0.54967678 0.55080897 0.55189955
0.55301052 0.55109847 0.54675996 0.54235333 0.53575528 0.53129113
0.52961463 0.5284403 0.52503359 0.5165416 0.50350392 0.48804635 0.47230521
0.45706719 0.44280842 0.43338203 0.44869295 0.54122841 0.67001593
0.73199075 0.74556088 0.7434535 0.74815845 0.75664926 0.74801445 0.68888342
0.53958589 0.53958589 0.49419814 0.46688241 0.45560807 0.46864313
0.46859059 0.46084177 0.44158873 0.40986639 0.37310332 0.33575198
0.29394215 0.26045403 0.24464688 0.23646629 0.24282663 0.26721004
0.30555561 0.34662554 0.36936581 0.37336364 0.36320743 0.34095851
0.31338084 0.28914061 0.27372575 0.27345476 0.28765756 0.31687477
0.35781768 0.40082636 0.42707619 0.43613887 0.43178412 0.41621798
0.39275157 0.37184796 0.36678118 0.38499394 0.4221597 0.46911699 0.52019864
0.57321262 0.62775964 0.68215537 0.73420936 0.78183717 0.82367605
0.85693812 0.88277858 0.90092248 0.90878147 0.90608275 0.8933531 0.87075186
0.84024465 0.80427355 0.76459461 0.72156292 0.67523068 0.62720972
0.58063614 0.53802115 0.4968693 0.45438915 0.40983814 0.36276147 0.31416434
0.2639409 0.20693733 0.13164032 0.055050809 0.01003808 0.00090419303
7.5690157e-05 5.2915025e-06 0 0 0 0 0 0 0 0 0 0 0 0 0 0 0 0 0 0 0 0 0 0 0 0
0 0 0 0 0 0 0 0 0 0 0 0 0 0 0 0 0 0 0 0 0 0 0 0 0 0 0 0
