# vtk DataFile Version 3.0
axinsert(project(permute(???,2,0,1),0,L2),2)
ASCII
DATASET STRUCTURED_POINTS
DIMENSIONS 128 256 1
ORIGIN 0 0 0
SPACING 1 1 1
POINT_DATA 32768
SCALARS nrrd46911 float
LOOKUP_TABLE default
0.050008543 0.050025005 0.050016209 0.050008036 0.049981054 0.049994029
0.049989276 0.049980178 0.050016116 0.049987175 0.049978428 0.050019257
0.050018061 0.050002031 0.050002404 0.050001029 0.050008934 0.050013069
0.050017297 0.050027769 0.049947016 0.049992245 0.049981076 0.049968582
0.049993198 0.049993612 0.049980845 0.050003715 0.049979158 0.05002084
0.050049026 0.049961731 0.050073106 0.050048441 0.04998567 0.049982175
0.050017145 0.050076004 0.049993508 0.050027516 0.050014745 0.049981136
0.049881849 0.049947627 0.050027009 0.050084278 0.050070003 0.049949042
0.049973037 0.050028004 0.049972001 0.049907017 0.050005179 0.049986001
0.049940385 0.050011273 0.050022017 0.050080147 0.050060336 0.050010018
0.049972419 0.049931098 0.050029274 0.050025452 0.049949002 0.050027367
0.050010297 0.05001143 0.05001846 0.049986005 0.04998301 0.050002106
0.049950331 0.050000031 0.050034177 0.050008416 0.050001048 0.049975008
0.04999201 0.050013099 0.049997024 0.049998604 0.050012104 0.049999721
0.050041087 0.050008807 0.049950272 0.049970903 0.049986046 0.050039031
0.050014652 0.049984396 0.050040968 0.049969021 0.049980015 0.050058253
0.049977861 0.050001018 0.049935102 0.049975771 0.050095346 0.050089017
0.050010785 0.049948059 0.050025351 0.050005939 0.049953248 0.049939185
0.050020497 0.050012615 0.049971011 0.050030019 0.050000615 0.04996109
0.050026003 0.050043229 0.050010137 0.05003038 0.049991652 0.049984436
0.049963254 0.049996145 0.050016057 0.050017115 0.050022047 0.04998754
0.049945559 0.049945559 0.050066032 0.050012123 0.049933117 0.050025783
0.050035693 0.050040241 0.049882509 0.049952436 0.050045464 0.04999001
0.049974255 0.050089464 0.050035045 0.049893409 0.050086301 0.050029255
0.049995732 0.050042078 0.050032429 0.050053112 0.049938276 0.049933668
0.049999148 0.049962424 0.049988087 0.049924362 0.049878158 0.049991295
0.049992744 0.049978107 0.050085928 0.049978621 0.049986497 0.050053675
0.049989238 0.050034013 0.050024558 0.050113574 0.050005145 0.05006817
0.050084479 0.049996853 0.049775172 0.049892116 0.050192185 0.050218042
0.050097056 0.049906619 0.049930055 0.049995068 0.049949616 0.0498074
0.049948335 0.050109502 0.049924098 0.050045151 0.050090998 0.050074391
0.050036177 0.050008986 0.04997544 0.049991902 0.050107244 0.050067056
0.049915362 0.050009076 0.050015077 0.049959008 0.050045002 0.050014999
0.050057199 0.050062347 0.050037 0.050038628 0.050052099 0.049998507
0.049848225 0.049963623 0.049976382 0.050033793 0.050131179 0.050043877
0.049907006 0.050091889 0.05011287 0.050051674 0.049941119 0.05001856
0.049962565 0.050087932 0.049987774 0.050036728 0.050055616 0.049757279
0.049960114 0.050067626 0.050109006 0.049967371 0.049790673 0.050066639
0.050212048 0.050099649 0.049899723 0.049952757 0.050208058 0.050037045
0.049683347 0.0497186 0.050054085 0.050077155 0.050035261 0.050104663
0.049887218 0.049869146 0.050172601 0.050061494 0.049953178 0.050156046
0.050060835 0.049860016 0.049778897 0.049898241 0.050084077 0.050023116
0.050122004 0.049998052 0.049825005 0.049825005 0.050034095 0.050005004
0.049780063 0.049985174 0.050027385 0.049992006 0.04983519 0.05000801
0.050068248 0.049922839 0.050132547 0.050097 0.049919084 0.049853433
0.050122879 0.050000705 0.049929578 0.049970929 0.050045401 0.049994789
0.050019313 0.049879067 0.049941536 0.050117902 0.050044246 0.049847279
0.049779814 0.049973298 0.050026122 0.050052989 0.050021693 0.05000034
0.049895372 0.049879879 0.050074454 0.050045256 0.049982842 0.049922198
0.049960539 0.050223246 0.050061371 0.04993299 0.049937781 0.050034165
0.050242014 0.050114911 0.050094638 0.050071511 0.049994431 0.049848568
0.05003164 0.049953997 0.049895328 0.050168909 0.050128259 0.05011601
0.050020017 0.049953111 0.049966037 0.050083045 0.049977113 0.050119035
0.050207999 0.050049022 0.050038084 0.049984392 0.049969293 0.049997237
0.050057173 0.050056376 0.050101213 0.050095044 0.050223101 0.050027397
0.050091278 0.049971033 0.04977151 0.049981203 0.049887568 0.050100714
0.050348695 0.050041221 0.049845543 0.050233804 0.050145552 0.050111502
0.049997613 0.050138008 0.049989942 0.050024446 0.0499731 0.050047293
0.049841434 0.049736675 0.05000861 0.050000772 0.050179586 0.049975332
0.049927562 0.050105304 0.050043631 0.049929231 0.049782455 0.050025187
0.050249949 0.049968921 0.049656257 0.049771473 0.05004764 0.050099261
0.050048016 0.050007876 0.049813576 0.049954265 0.050151039 0.050029039
0.04989903 0.050108314 0.050040066 0.049827024 0.049725085 0.049818136
0.050040096 0.049946114 0.05002407 0.05003275 0.049991067 0.049991067
0.050057061 0.050067503 0.049700826 0.049816452 0.049832966 0.0498721
0.049920518 0.050047036 0.050138257 0.049897004 0.050294071 0.050004363
0.049810503 0.049917459 0.050069001 0.04991702 0.049853172 0.049945224
0.049988035 0.049869787 0.050029665 0.04982309 0.049923461 0.050253186
0.050100386 0.049836095 0.049683176 0.049929153 0.050005358 0.050267287
0.050040003 0.049860075 0.049909592 0.049927998 0.050183084 0.049971092
0.049904101 0.049747013 0.049890246 0.050374109 0.050017189 0.049892038
0.050003082 0.050097011 0.050225072 0.049972501 0.050131507 0.05026247
0.05005208 0.049793273 0.050138116 0.050016023 0.049985595 0.050112113
0.050234109 0.050248031 0.050004531 0.049988639 0.050024584 0.050167758
0.049987886 0.049957551 0.050119001 0.050141137 0.050141394 0.050072156
0.049954969 0.050148424 0.050106093 0.050036564 0.0499468 0.050023004
0.050135337 0.049920734 0.050170079 0.050038461 0.049853005 0.050002031
0.049867 0.050148249 0.050409019 0.049985021 0.049903236 0.050259206
0.05018013 0.050000042 0.050047502 0.050184175 0.050021436 0.050027039
0.050038006 0.050032023 0.049727079 0.049867101 0.050097242 0.049850803
0.050030105 0.050063137 0.050180264 0.049923979 0.049915113 0.049961183
0.049748186 0.04992814 0.050146148 0.049901046 0.049951147 0.049984809
0.049943373 0.050082363 0.049917392 0.049814001 0.049798012 0.050075196
0.050045185 0.050092407 0.049984597 0.049786031 0.049938466 0.04990609
0.049791407 0.049935166 0.050080121 0.049833879 0.049760126 0.049994063
0.050193019 0.050193019 0.050235104 0.050039601 0.04966725 0.049462605
0.049683999 0.049898975 0.049913537 0.05025024 0.050123367 0.050011288
0.050349001 0.049922545 0.04996315 0.050060678 0.050003581 0.049800519
0.049793433 0.050004173 0.04991331 0.049646147 0.04994021 0.049810015
0.050122421 0.050396811 0.050124533 0.04986269 0.049781565 0.049898107
0.049986001 0.050270125 0.050110627 0.049744371 0.049965262 0.050193217
0.050208203 0.050030053 0.049873717 0.049662229 0.049860321 0.050306473
0.050166272 0.050029755 0.049911443 0.050017968 0.050049458 0.049864653
0.050184254 0.050333228 0.050087389 0.049831353 0.050187163 0.050069004
0.050124243 0.04996103 0.050117217 0.050247498 0.050195962 0.050167304
0.05009605 0.050168756 0.050026711 0.049700495 0.049789354 0.050246157
0.05005559 0.05012222 0.05002702 0.050158005 0.050073035 0.050039515
0.049853072 0.049878236 0.049930807 0.049741276 0.050135195 0.05006237
0.049895212 0.0500465 0.050063267 0.050094895 0.050240826 0.04992035
0.050015241 0.050196297 0.050153662 0.049926102 0.050145473 0.050067838
0.050022781 0.050091058 0.050064418 0.050094545 0.049948771 0.050100256
0.05020877 0.049581166 0.049795985 0.05003421 0.050383724 0.049782313
0.049906153 0.050154921 0.049770873 0.049766209 0.050060712 0.049973287
0.050300281 0.050054003 0.049735524 0.050060079 0.049917005 0.049683586
0.049740519 0.050109003 0.050056137 0.05015707 0.050113458 0.049496174
0.049864437 0.050053168 0.049929198 0.050135024 0.050227039 0.049941059
0.049662318 0.049870666 0.050117116 0.050117116 0.050374024 0.049956039
0.049612086 0.049197201 0.049783606 0.049999777 0.04980519 0.050590202
0.050059337 0.050138857 0.050207011 0.050044537 0.050201826 0.05020776
0.049888406 0.049697015 0.049803413 0.050050471 0.049954094 0.049556475
0.049926568 0.049889382 0.050178751 0.050523113 0.05012976 0.049962305
0.050098497 0.049974244 0.050008859 0.049986359 0.050129626 0.049804218
0.05007207 0.050267205 0.050075948 0.050312575 0.049886528 0.049588535
0.049905382 0.050094999 0.050531875 0.050239179 0.049753461 0.049951501
0.049751449 0.049892366 0.050179698 0.050162397 0.050077531 0.049858287
0.050229978 0.050150838 0.050121255 0.049888268 0.04993479 0.0500484
0.050412349 0.050232336 0.050020918 0.050081585 0.050018601 0.049612213
0.049502559 0.05020602 0.049851045 0.049884759 0.050083619 0.050022449
0.049915429 0.050008956 0.050053548 0.049802821 0.049877748 0.049686357
0.049933553 0.049954973 0.049899489 0.050026599 0.05021847 0.050011817
0.050013345 0.049965866 0.050203249 0.050191149 0.050123416 0.049994513
0.050109453 0.049931757 0.050026961 0.050197292 0.049957693 0.050053362
0.050293155 0.050355922 0.050253354 0.04949072 0.049671631 0.049858272
0.050439127 0.049884636 0.049980298 0.050250832 0.049728211 0.0498368
0.050005946 0.049978435 0.050398942 0.049954724 0.049661558 0.049988717
0.050107244 0.04987954 0.049675837 0.050040804 0.050113983 0.050139047
0.050139491 0.049508028 0.049892791 0.050101757 0.050061096 0.050214164
0.050229665 0.050258268 0.049949482 0.049743358 0.049821109 0.049821109
0.050357051 0.049968362 0.049671181 0.0492585 0.049951043 0.049961466
0.049908083 0.050612189 0.050150149 0.050183926 0.049888056 0.050355457
0.050209891 0.0502415 0.049650166 0.049716081 0.049929384 0.050057776
0.050098546 0.049774785 0.050060324 0.050079286 0.049989685 0.050500244
0.049994446 0.050144698 0.050329763 0.050036274 0.050138324 0.049805969
0.050103705 0.049974699 0.050082374 0.05005471 0.049906172 0.050554506
0.04986845 0.049542286 0.050035961 0.049963873 0.050780907 0.050354831
0.049687084 0.050064832 0.04966614 0.050033063 0.049975876 0.049843851
0.049980368 0.049843017 0.050267339 0.050167769 0.050068706 0.049974319
0.04979958 0.049826216 0.05034782 0.050031316 0.049804162 0.049981002
0.049974058 0.049687091 0.049481001 0.049942013 0.049640849 0.0495051
0.050029688 0.049974825 0.049734231 0.04980037 0.050224137 0.049839329
0.049955186 0.049856961 0.049763173 0.049904261 0.04996011 0.049930036
0.05006025 0.04999923 0.049926993 0.050142087 0.050414912 0.050235759
0.050153743 0.050072473 0.049874045 0.049908739 0.05009057 0.05032593
0.049962956 0.049803235 0.050357006 0.050379038 0.050149176 0.049811639
0.04972684 0.049842983 0.050419409 0.050087389 0.05009238 0.050206482
0.049647503 0.050096031 0.049905892 0.049823161 0.050246917 0.049802072
0.04987181 0.049939346 0.050226461 0.050294735 0.049728997 0.050012063
0.050106298 0.050098021 0.050054953 0.049673203 0.050044224 0.049986016
0.050093018 0.050187074 0.05001428 0.050412871 0.050411612 0.049731046
0.049661085 0.049661085 0.050214078 0.049972907 0.04995802 0.049458738
0.049931392 0.049952302 0.050179135 0.050269667 0.050391078 0.050130293
0.049708061 0.050581798 0.050000489 0.050171677 0.049471006 0.049844064
0.050189216 0.050040606 0.05018311 0.050069861 0.050129093 0.050271101
0.049882125 0.050309062 0.049806662 0.050292097 0.050300434 0.049976919
0.050381999 0.050018158 0.050125502 0.050157476 0.049944021 0.04984251
0.04985071 0.050468452 0.04992174 0.049622044 0.050157111 0.049996983
0.050612506 0.050310094 0.049831558 0.050279394 0.049833972 0.050073877
0.04972494 0.049664162 0.049910206 0.049863901 0.050239205 0.050190873
0.050081983 0.050020229 0.049711544 0.049645811 0.049965087 0.049746674
0.04962714 0.049896024 0.049918551 0.049690213 0.049639687 0.049544066
0.049443655 0.049392521 0.049842887 0.049961749 0.049638003 0.049489334
0.049990345 0.049884055 0.050008424 0.050019741 0.04981849 0.050034687
0.050066277 0.049868464 0.049790703 0.050051644 0.050014921 0.050259285
0.050500508 0.050218739 0.050138444 0.050149605 0.049740739 0.049925327
0.050189387 0.050324667 0.050158355 0.049648106 0.050042316 0.050079741
0.050006051 0.050332047 0.049887866 0.050014336 0.050481446 0.050195508
0.050196424 0.050217614 0.049696825 0.050197739 0.049829829 0.049772009
0.050011504 0.049703643 0.050164144 0.050045244 0.050189834 0.050457302
0.049985893 0.050092492 0.050117675 0.050115079 0.050006114 0.049726352
0.050131772 0.049885303 0.049959533 0.050165385 0.049803294 0.050304398
0.050626185 0.049865246 0.04986351 0.04986351 0.05003706 0.049938433
0.050232284 0.049589179 0.049860626 0.050107408 0.050259862 0.049979109
0.050580442 0.050006106 0.049937159 0.050513349 0.049795002 0.050089948
0.049607158 0.049997471 0.05047144 0.050040334 0.050124902 0.050092943
0.049986988 0.050306253 0.049979482 0.050067753 0.049808361 0.050325517
0.05020038 0.049932834 0.050545599 0.050347038 0.050221987 0.050329566
0.04987818 0.049839262 0.049894914 0.050154246 0.050095465 0.049804043
0.050183099 0.050128218 0.050143138 0.050169677 0.050083145 0.050313856
0.049941018 0.049970523 0.049713001 0.049666468 0.049972843 0.049981911
0.05023789 0.050241694 0.050029892 0.04992548 0.049680244 0.049498755
0.0496087 0.049540211 0.049553994 0.049670894 0.049765162 0.049647003
0.049705233 0.049290001 0.049308352 0.04951901 0.049549751 0.049755696
0.049630754 0.049436197 0.049547359 0.049824841 0.049950425 0.049986124
0.050000791 0.050097767 0.050109573 0.049940791 0.049739715 0.050088979
0.050187767 0.050154265 0.050358742 0.050135233 0.050025079 0.050223079
0.049922206 0.049912434 0.050253488 0.050155379 0.050295714 0.049866423
0.049723234 0.049782775 0.049946073 0.050600443 0.050092708 0.050092705
0.050550554 0.050197918 0.050237268 0.050363395 0.049956862 0.050074279
0.049906038 0.05000145 0.049783591 0.049690012 0.050276607 0.050217118
0.050207227 0.050265815 0.050377045 0.050166234 0.050205659 0.050168887
0.049929954 0.049704034 0.050027806 0.049890041 0.049693577 0.05012187
0.049870729 0.050249141 0.050501242 0.050049633 0.050248317 0.050248317
0.049906347 0.050058033 0.050279193 0.049725067 0.049952488 0.050231364
0.050064541 0.04997303 0.050522882 0.049940865 0.050386868 0.050190166
0.049791146 0.050050508 0.050015002 0.050139144 0.050496567 0.050086703
0.050053287 0.049897939 0.049779635 0.050209034 0.050135188 0.049915213
0.050024819 0.050249558 0.050218459 0.050086901 0.050440814 0.050426092
0.050342407 0.050493084 0.050086126 0.049948808 0.04995127 0.049930524
0.050168965 0.049983237 0.050203767 0.050208598 0.049777228 0.050094344
0.050171513 0.050106004 0.049881339 0.049933054 0.049923118 0.049710609
0.050034173 0.050101638 0.050301775 0.050193202 0.049837977 0.049805392
0.049720597 0.049448393 0.049527865 0.04930599 0.049454395 0.049255729
0.049552646 0.049725059 0.049587581 0.049358409 0.049258202 0.049482275
0.049272079 0.049450785 0.049605045 0.049718414 0.049363993 0.04964317
0.049813285 0.049830195 0.05004859 0.049894243 0.050031334 0.05005626
0.04985489 0.050081935 0.050331477 0.049972959 0.050128669 0.050083168
0.049961153 0.050144568 0.050239906 0.049979124 0.050242938 0.049982533
0.050287772 0.050223958 0.049784105 0.049867731 0.049904842 0.050413042
0.050357196 0.05010815 0.050396085 0.050122596 0.05019613 0.050452799
0.050246477 0.050018903 0.050140776 0.050279576 0.049736869 0.049785018
0.050163571 0.050229192 0.050350629 0.05012827 0.050656203 0.050187111
0.05018751 0.050157428 0.049683046 0.049831439 0.04990251 0.049908973
0.049506616 0.050020747 0.050148901 0.050373022 0.050400849 0.050203007
0.050466262 0.050466262 0.049897797 0.050292049 0.050311014 0.049909454
0.050071664 0.050197825 0.049858138 0.050074644 0.050210308 0.0500018
0.050627492 0.049863193 0.050058015 0.050092835 0.050418917 0.050285425
0.050170507 0.050132439 0.050042775 0.049826667 0.04972358 0.050157007
0.050223611 0.049899127 0.050231088 0.050122868 0.050280858 0.050390959
0.050150849 0.050353512 0.050424028 0.050581913 0.050473485 0.050043508
0.050001521 0.049910415 0.050036173 0.050153188 0.050277185 0.050125703
0.049743511 0.050122838 0.0499999 0.049900435 0.04985157 0.050055292
0.050085727 0.049800847 0.049981326 0.050101731 0.050169952 0.050024804
0.049660143 0.049680863 0.049784008 0.049481057 0.049528502 0.049088761
0.049342487 0.048969116 0.04944789 0.049720496 0.049466033 0.049531419
0.049192 0.049234271 0.049190652 0.049283322 0.049505711 0.049915407
0.049528074 0.049484521 0.049615517 0.04965153 0.049871329 0.049687061
0.049933564 0.049967244 0.049894381 0.050102111 0.050312728 0.049966704
0.050037939 0.050097246 0.050077118 0.049977511 0.050420299 0.050155543
0.050134692 0.049989633 0.050247692 0.050348703 0.050085127 0.050246827
0.049872868 0.049989015 0.050527342 0.050311055 0.050058525 0.050064657
0.050172452 0.050344091 0.050323408 0.05013207 0.050423384 0.05031703
0.049980484 0.049998056 0.049940195 0.050102532 0.050411325 0.050282933
0.050596777 0.050224166 0.04996134 0.050077837 0.049493615 0.050095681
0.049951639 0.049884327 0.04962394 0.049997009 0.050274439 0.050440483
0.050475046 0.050381877 0.050443221 0.050443221 0.050007116 0.050324306
0.050444257 0.050023425 0.050131101 0.050136022 0.049833063 0.050099112
0.049910016 0.050032001 0.050539028 0.049832132 0.050397068 0.050184034
0.050627761 0.050407026 0.049799025 0.050094172 0.050057616 0.049953144
0.049933989 0.050178044 0.050155748 0.049978774 0.050279256 0.050047234
0.050280426 0.050667144 0.050004806 0.050373323 0.050407089 0.05053515
0.050732248 0.0501935 0.050090935 0.050030351 0.049959145 0.050350484
0.050278582 0.049978055 0.049909789 0.050147861 0.0498018 0.049870301
0.049898025 0.050115366 0.050039697 0.049992792 0.049910668 0.049985327
0.049775779 0.049855489 0.049635563 0.049498826 0.049716972 0.049498625
0.049364973 0.049133196 0.049371224 0.049075451 0.049325805 0.049431484
0.049415283 0.049381934 0.049092613 0.049134456 0.049318589 0.049170356
0.049420264 0.049757063 0.049683247 0.049547654 0.049355164 0.049467187
0.049618583 0.04971436 0.049945805 0.049694471 0.049837518 0.050139248
0.050083552 0.050113011 0.050118357 0.050144311 0.050293364 0.05002217
0.050417766 0.050264318 0.049977265 0.0502108 0.050204981 0.050244421
0.050263822 0.050443549 0.049990799 0.049729798 0.050379034 0.050619632
0.049823307 0.050193429 0.050302103 0.050145529 0.050250567 0.050220139
0.050593499 0.050176717 0.050285358 0.05024315 0.049831681 0.0501182
0.050256398 0.050478123 0.050310403 0.0502133 0.049752474 0.050042644
0.049664192 0.050233722 0.050115284 0.049891859 0.050034013 0.050081987
0.050165012 0.050277241 0.050476652 0.050575525 0.050369535 0.050369535
0.050091021 0.050053567 0.050390374 0.050108019 0.050231807 0.050181109
0.049894344 0.050124463 0.049871005 0.049971763 0.050332002 0.050152183
0.050482485 0.050225321 0.050580252 0.050460938 0.049675304 0.050045025
0.050149329 0.050116096 0.050330691 0.050091673 0.049984023 0.050110467
0.050248858 0.050065544 0.050266095 0.050785027 0.050144505 0.050413374
0.050327443 0.050402813 0.050696671 0.050440941 0.050271977 0.050243095
0.050128967 0.050460946 0.050165206 0.049941655 0.050082769 0.050145112
0.049826264 0.049999539 0.049842976 0.049938731 0.049892172 0.050165441
0.049826156 0.049832698 0.049544573 0.049735229 0.049691521 0.049353886
0.049469542 0.049468596 0.04916288 0.049338475 0.049428813 0.049348898
0.049002375 0.049123015 0.049270786 0.048910093 0.049068782 0.049225513
0.049411029 0.048966773 0.049399544 0.049476612 0.04958383 0.04972437
0.049132369 0.049355306 0.049422421 0.049761795 0.049984977 0.049626831
0.049911108 0.050078593 0.049806599 0.050168652 0.050206639 0.050223351
0.050429288 0.050299451 0.050365828 0.050231915 0.049906816 0.050463781
0.050161235 0.050126377 0.050248753 0.050233305 0.050235718 0.049907882
0.050054047 0.050747946 0.049812831 0.050392319 0.050550349 0.05001064
0.05027359 0.050189145 0.050565362 0.050130863 0.050358385 0.050454311
0.050024323 0.05039227 0.050016582 0.050361704 0.050151493 0.050064176
0.049791653 0.050087616 0.050047569 0.050199013 0.05022632 0.050018225
0.050496109 0.050100259 0.050101098 0.050001726 0.050324425 0.050581288
0.050342005 0.050342005 0.050035067 0.049794678 0.050129183 0.050222173
0.050331011 0.050179064 0.049995225 0.05021828 0.050024025 0.049989514
0.050194006 0.050475255 0.050364647 0.050233044 0.050336495 0.0504786
0.049787108 0.050112709 0.050307378 0.050283521 0.050638951 0.049847651
0.049930502 0.05028151 0.050288174 0.050115541 0.050292358 0.050659362
0.050305996 0.050394401 0.050338537 0.050274927 0.050510366 0.050625369
0.050470114 0.050480321 0.050431587 0.050325606 0.050124146 0.050065141
0.050216224 0.050188001 0.050056204 0.050203849 0.049679872 0.049724609
0.049806688 0.050086111 0.049589138 0.049749259 0.049677763 0.04958703
0.049639739 0.049371988 0.049248647 0.049391098 0.049139149 0.049383137
0.04925476 0.049333226 0.048759859 0.048957258 0.049016479 0.048606049
0.049109086 0.049168155 0.04922973 0.048805043 0.049326152 0.049316529
0.049367417 0.04971936 0.049082898 0.049389254 0.049312666 0.049594205
0.049882997 0.049892358 0.050212711 0.049948633 0.049700473 0.050046835
0.050166439 0.050299779 0.050449263 0.050504372 0.050342139 0.050199714
0.050024521 0.050529219 0.050200567 0.050081067 0.050182968 0.049919311
0.050437164 0.050422236 0.049964231 0.050643269 0.049964812 0.050310161
0.050667148 0.050017759 0.050440986 0.050167192 0.050397027 0.050274
0.05025487 0.050641716 0.050450005 0.050593626 0.049892012 0.049983319
0.050171249 0.049963512 0.050027467 0.050115004 0.050308611 0.050226066
0.050248448 0.050160915 0.050758015 0.050038122 0.050177027 0.04991376
0.050095834 0.050412007 0.050322127 0.050322127 0.049953025 0.049844772
0.049970303 0.050290134 0.050293542 0.049981005 0.050174013 0.050276726
0.050147075 0.050180573 0.050151091 0.05044435 0.050332211 0.05030103
0.050144348 0.050478581 0.050006855 0.05025148 0.050340947 0.050437585
0.050687961 0.049730211 0.050090048 0.050467148 0.050444279 0.050141215
0.0502997 0.050344173 0.050269324 0.050427336 0.050518911 0.05026168
0.05040295 0.050593454 0.050509531 0.050637562 0.050663989 0.050069597
0.050290834 0.050275356 0.050323285 0.050233454 0.050336946 0.050328217
0.049616247 0.049748264 0.049785476 0.049734063 0.049304791 0.049815603
0.049785197 0.049339965 0.049418509 0.049514778 0.049223751 0.049287379
0.049197972 0.049270812 0.048898511 0.048909009 0.048870038 0.048721675
0.048746902 0.048733108 0.049065676 0.048900057 0.04879614 0.048734855
0.049125206 0.049192227 0.049196422 0.049508229 0.049246818 0.049491026
0.049300436 0.049365025 0.049686652 0.050119005 0.050506551 0.049889773
0.049830399 0.049971871 0.05002179 0.050270624 0.050417341 0.050490163
0.050339364 0.050252762 0.050273754 0.050427224 0.050329328 0.050132491
0.050175026 0.049851462 0.050517697 0.050841697 0.050166026 0.05049812
0.050197233 0.050000593 0.050474875 0.050171562 0.050608356 0.050307993
0.050203957 0.050465651 0.050215282 0.050742842 0.050798111 0.050376818
0.04997164 0.049745604 0.050100893 0.050118327 0.050281778 0.050062001
0.050394293 0.05040222 0.050206654 0.050223082 0.050718088 0.050036255
0.050236024 0.050148092 0.049869075 0.050355025 0.050267003 0.050267003
0.050039101 0.050113935 0.049962699 0.050293144 0.050195083 0.049824543
0.050271649 0.050228499 0.050201368 0.050409593 0.05019686 0.050249618
0.050325591 0.050391611 0.050212573 0.050369792 0.050260738 0.050348591
0.050245117 0.050432608 0.05054988 0.049945865 0.050266273 0.050598502
0.050560329 0.050205864 0.050249081 0.050116256 0.050245531 0.050496291
0.050712463 0.050438564 0.050452251 0.050452117 0.050440192 0.050657127
0.050665725 0.05001349 0.05051031 0.050441094 0.05046786 0.050186161
0.050519973 0.050268881 0.049727116 0.049903411 0.049763374 0.049444862
0.049269605 0.049931578 0.04957252 0.049056392 0.049185432 0.049594637
0.049264181 0.049211536 0.049122099 0.049149144 0.048645888 0.048471078
0.049012218 0.04834443 0.048470203 0.048985999 0.048912484 0.048665084
0.048375554 0.048616499 0.048931528 0.048987444 0.04901443 0.049254831
0.04951762 0.04953843 0.049352072 0.049333487 0.049554162 0.050027315
0.050479528 0.049929488 0.050099168 0.050158162 0.049893256 0.050108638
0.050360665 0.050403364 0.050392646 0.050344262 0.050483342 0.050347995
0.050447013 0.050285794 0.050261185 0.050047439 0.05047477 0.050815549
0.050344609 0.050443564 0.050435998 0.049983531 0.050157525 0.050378229
0.050701655 0.050567552 0.050133277 0.050526761 0.050308246 0.050590161
0.050831933 0.05000703 0.050144717 0.049853008 0.049928568 0.050414652
0.050441191 0.049994268 0.050375666 0.050522499 0.050170384 0.050308201
0.050534181 0.050068256 0.050235026 0.050454997 0.049796954 0.050461106
0.050192568 0.050192568 0.050248779 0.050357793 0.049957078 0.050268766
0.050296027 0.049925812 0.050207887 0.050146289 0.050233997 0.050472848
0.050303753 0.050265417 0.050123725 0.050445035 0.050366428 0.050122321
0.050541669 0.050405227 0.050311644 0.05025265 0.050369874 0.050300639
0.050269712 0.050549652 0.050463229 0.050415505 0.050239868 0.050204344
0.050467171 0.050578076 0.050726369 0.050647784 0.050546553 0.050427556
0.050487947 0.050568484 0.050480366 0.050264739 0.050536942 0.050446454
0.050699938 0.050110787 0.050495576 0.050130751 0.049917702 0.049860612
0.049701452 0.0495179 0.049523037 0.049898125 0.049303677 0.048954442
0.049046379 0.049462177 0.04919678 0.04912528 0.048858121 0.048917491
0.048586793 0.048403718 0.048803721 0.048023157 0.048331082 0.048886675
0.048702635 0.048465911 0.048216984 0.048536777 0.048857369 0.048799306
0.048783876 0.049012624 0.049636155 0.049536299 0.049382765 0.049516
0.049524672 0.049778845 0.050151739 0.049969643 0.050298657 0.050468244
0.049909513 0.049947534 0.05035118 0.050388955 0.050487299 0.050439149
0.050552625 0.050383341 0.050499309 0.050413743 0.050385818 0.050367959
0.050352246 0.050478186 0.050393771 0.050442066 0.050544534 0.050421081
0.0500466 0.050533101 0.050775748 0.050691754 0.050300483 0.050410833
0.050394516 0.05022686 0.050609455 0.049955472 0.050267808 0.050156523
0.049929999 0.050630428 0.050477192 0.050004318 0.050241001 0.050368406
0.050255246 0.050469302 0.050401434 0.050103735 0.050264001 0.05054117
0.049930114 0.050469015 0.050195027 0.050195027 0.050376449 0.050476234
0.04993007 0.05026618 0.050558008 0.050167423 0.050201256 0.050159305
0.050246101 0.050309986 0.050315466 0.050409403 0.049886566 0.050472096
0.050310258 0.049935013 0.05079845 0.050508168 0.050580766 0.050107859
0.050269358 0.050528262 0.050168768 0.050258171 0.050283968 0.050689708
0.050360046 0.050471708 0.05077751 0.05082779 0.050598893 0.050641254
0.050508209 0.050558913 0.050646428 0.050500765 0.050379287 0.050611123
0.050355148 0.05032111 0.050860051 0.050157744 0.050328549 0.05004327
0.050168045 0.049648959 0.049634635 0.049825929 0.049820587 0.049716808
0.04925555 0.049162768 0.048979081 0.049129296 0.049044944 0.048939385
0.048518807 0.048510384 0.048497621 0.048579581 0.048363939 0.047954489
0.048358284 0.048333868 0.048366677 0.04822164 0.048318688 0.048634429
0.048807263 0.048744865 0.048618585 0.048815314 0.049422756 0.049529459
0.049368557 0.049706023 0.049548913 0.049647395 0.049834277 0.049860369
0.050287034 0.050584856 0.050145961 0.050022557 0.050452951 0.050418518
0.050447825 0.050546072 0.050554585 0.050489493 0.050518908 0.050429307
0.050452478 0.050658822 0.050285842 0.050290789 0.050506461 0.050468467
0.050416321 0.050816625 0.050251227 0.050590593 0.050863519 0.050544642
0.050556805 0.050262678 0.050388288 0.050002147 0.050336432 0.050227024
0.050338529 0.050424095 0.050124176 0.050650526 0.050451547 0.050139673
0.050144017 0.050078604 0.050361488 0.050566275 0.050330427 0.050220598
0.050377086 0.050489135 0.050157055 0.050253604 0.050301995 0.050301995
0.050362062 0.050495021 0.04995203 0.050295331 0.050589047 0.050364166
0.050384156 0.050310642 0.05028617 0.050060112 0.050113857 0.050376169
0.049946651 0.050433151 0.050173081 0.050039388 0.050868634 0.050641418
0.050710823 0.050161365 0.050341152 0.050604358 0.050134361 0.049954697
0.050307985 0.050792161 0.050566323 0.050622802 0.050945137 0.051157869
0.050513729 0.050537009 0.050343707 0.050672811 0.050702602 0.050562538
0.050472382 0.050790589 0.050213862 0.050218433 0.05072796 0.050333232
0.050246663 0.050024606 0.050498076 0.049667973 0.049657747 0.050010484
0.049974993 0.049555283 0.049265783 0.049462039 0.049054094 0.048796907
0.048837006 0.048691869 0.048275396 0.048148174 0.04818929 0.048589583
0.047915466 0.048049461 0.048302047 0.047679879 0.048005186 0.048080359
0.048428841 0.048650287 0.048626982 0.048735555 0.048619874 0.048731148
0.049058966 0.049476389 0.049398355 0.0496975 0.049586631 0.049673799
0.049685892 0.04962438 0.050150361 0.050470255 0.05050626 0.050368935
0.050560027 0.050472271 0.050257292 0.050614193 0.050592523 0.050580628
0.050525211 0.050484754 0.0504991 0.050811116 0.050342843 0.050388582
0.050732747 0.050564468 0.050252024 0.050789796 0.050607733 0.050542373
0.05086204 0.050348159 0.050593656 0.050248463 0.050389085 0.050187282
0.050149992 0.050518293 0.050399076 0.050515801 0.050331071 0.050419938
0.050432678 0.050366994 0.050266717 0.050011128 0.05031807 0.050492633
0.050330974 0.050350152 0.050455466 0.050504215 0.05034354 0.050056152
0.050414197 0.050414197 0.050314792 0.050476123 0.050045148 0.050289087
0.050242022 0.050440393 0.050599366 0.050500058 0.050364502 0.049978085
0.049870979 0.050243061 0.05029089 0.050247937 0.050227217 0.050363641
0.050626274 0.050647255 0.050619584 0.050384011 0.050508048 0.050596919
0.050286811 0.049975824 0.050486322 0.050661832 0.050784674 0.050651632
0.05094976 0.0511292 0.050549258 0.05062034 0.050298393 0.050651915
0.050592832 0.050685287 0.050569326 0.050775681 0.050319429 0.050283331
0.05040855 0.050492734 0.050346028 0.050073013 0.0507502 0.050037611
0.049805436 0.049925894 0.049999148 0.049499031 0.049133457 0.049514469
0.049294177 0.048726816 0.048575617 0.048446227 0.04820469 0.047977705
0.047837943 0.04830322 0.047452688 0.048001513 0.047998082 0.047356579
0.047882937 0.048017502 0.048295777 0.048316117 0.048287917 0.048605777