# vtk DataFile Version 3.0
axinsert(project(???,0,L2),2)
ASCII
DATASET STRUCTURED_POINTS
DIMENSIONS 256 1 1
ORIGIN 0 0 0
SPACING 1 1 1
POINT_DATA 256
SCALARS nrrd58189 float
LOOKUP_TABLE default
0 0 0 0 0 0 0 0 0 0 0 0 0 0 0 0 0 0 0 0 0 0 0 0 0 0 0 0 0 2.4494898e-06
1.9261361e-05 0.00013606249 0.00095066399 0.0063135889 0.038941883
0.21508655 0.97564477 2.2967997 1.4376887 1.538009 1.35469 0.94167405
1.1585416 1.5642972 1.8226714 1.7567906 1.5240986 1.8021445 1.7553681
1.6462408 2.0401835 2.4764295 2.0953114 1.6256324 1.296207 1.1051369
1.0002286 0.93794549 0.89640951 0.86628205 0.84290296 0.82395041 0.80761284
0.79291523 0.77912891 0.76610309 0.75358766 0.74168104 0.73039991 0.719733
0.70964956 0.70011842 0.69110674 0.68258005 0.67458332 0.66693658
0.65954792 0.65259159 0.64591736 0.6394943 0.63330668 0.62736613 0.6217041
0.61630929 0.6111691 0.60641325 0.60179812 0.59740043 0.59308779 0.58869511
0.58411676 0.57933044 0.57449776 0.56982607 0.5655356 0.56171978 0.55829489
0.55521476 0.55242372 0.5501858 0.54727274 0.54432571 0.54083472 0.53634387
0.53158396 0.52732235 0.52438909 0.52289194 0.52169114 0.5190407 0.51205695
0.49998072 0.48260722 0.46134555 0.44623354 0.44161424 0.45959282
0.50735509 0.55128276 0.5886898 0.66900343 0.73677093 0.76396751 0.76395375
0.73881191 0.70920676 0.66761565 0.6094262 0.6094262 0.62171263 0.61966652
0.57506359 0.51033586 0.46270165 0.43189695 0.3965517 0.35006723 0.30353403
0.26085663 0.2335543 0.22625834 0.23117776 0.24853657 0.27122653 0.29921964
0.33381775 0.36536652 0.37413839 0.35942513 0.3241789 0.27489883 0.23033825
0.2044107 0.19935977 0.21140766 0.24220444 0.28724915 0.33378619 0.36217213
0.37382019 0.37009251 0.35427931 0.33317196 0.31778973 0.31776443
0.33807376 0.3751013 0.42102268 0.46975401 0.52005434 0.57376009 0.63129485
0.69089419 0.74927723 0.80286855 0.84889263 0.88558704 0.91069639
0.92550576 0.92970616 0.92235559 0.90423369 0.87690169 0.84208179
0.80277985 0.76350832 0.72715086 0.69348276 0.65825361 0.61485988
0.55914193 0.50293463 0.46042293 0.42637125 0.39618826 0.35824555
0.30348358 0.22507848 0.12546881 0.042337161 0.0054506627 0.00049527164
4.0435134e-05 2.8284271e-06 0 0 0 0 0 0 0 0 0 0 0 0 0 0 0 0 0 0 0 0 0 0 0 0
0 0 0 0 0 0 0 0 0 0 0 0 0 0 0 0 0 0 0 0 0 0 0 0 0 0 0 0
