# vtk DataFile Version 3.0
axinsert(project(permute(???,2,0,1),0,L2),2)
ASCII
DATASET STRUCTURED_POINTS
DIMENSIONS 128 256 1
ORIGIN 0 0 0
SPACING 1 1 1
POINT_DATA 32768
SCALARS nrrd35109 float
LOOKUP_TABLE default
0.04998 0.0499763 0.050029006 0.050055023 0.049979378 0.050013289
0.050048526 0.049966011 0.050000008 0.050038375 0.049970247 0.049963009
0.049960002 0.050026041 0.050009213 0.050010152 0.050018352 0.04999502
0.049979001 0.049956024 0.050023403 0.050064102 0.05000506 0.049923159
0.049993571 0.050059061 0.049947165 0.049980421 0.050018001 0.04999321
0.050046034 0.050028112 0.050019041 0.050016515 0.049989998 0.049983233
0.049950998 0.049978007 0.049955115 0.049997628 0.050003093 0.050032295
0.050013237 0.049988147 0.050039116 0.049994018 0.050003003 0.050044999
0.050015215 0.049950063 0.049968004 0.050029073 0.050014086 0.049968999
0.050021 0.049960151 0.04995105 0.049996126 0.0500081 0.050036062
0.049984027 0.050049514 0.04999698 0.049966242 0.050018262 0.049992274
0.050014291 0.049982224 0.04999515 0.049995065 0.049981017 0.049938258
0.04999426 0.050036248 0.050015159 0.050065029 0.050029274 0.049939007
0.049999025 0.050030008 0.049984001 0.049995046 0.050030101 0.050023139
0.049947023 0.049982104 0.049998082 0.04999901 0.049995009 0.04999401
0.050055038 0.050057303 0.049989134 0.049959164 0.049975 0.050002009
0.049999043 0.050026003 0.050010055 0.049993012 0.049988158 0.050003059
0.050038282 0.049996052 0.050013103 0.049981318 0.049991012 0.05003437
0.050003044 0.04997021 0.049989004 0.049980249 0.049945008 0.050017174
0.05004603 0.050005004 0.04999711 0.049979001 0.050008018 0.050025038
0.050025005 0.049958277 0.04996014 0.050052024 0.050018054 0.049989
0.049982015 0.049982015 0.049893085 0.050005287 0.050063003 0.050150216
0.049949024 0.05004812 0.050058018 0.049943272 0.050079022 0.050053027
0.049940065 0.049904004 0.049907111 0.050069999 0.050042119 0.049977999
0.050022196 0.049959041 0.050021384 0.049875021 0.050016336 0.050200004
0.049959045 0.0498432 0.050032005 0.050119031 0.049917094 0.049922001
0.049994085 0.049959045 0.050128236 0.050101038 0.050030071 0.049988043
0.049997158 0.049990047 0.049937073 0.050021 0.049958006 0.049946167
0.049960025 0.050076004 0.050067 0.049947135 0.05007505 0.04997322
0.049955107 0.050094176 0.05002616 0.049920063 0.049918 0.050048001
0.050031036 0.049992017 0.050060019 0.049921017 0.049861014 0.049972031
0.050023001 0.050078027 0.050010044 0.050089005 0.049913999 0.049939003
0.050107013 0.050016019 0.05002806 0.049976017 0.049968019 0.049947001
0.049957007 0.049876001 0.050011005 0.050077002 0.050048027 0.050150003
0.050039019 0.049936 0.050002515 0.050039999 0.049920708 0.049933009
0.050112121 0.050019003 0.049929012 0.049940068 0.050000008 0.050093047
0.050042156 0.049983595 0.050069049 0.050024319 0.050005019 0.04999128
0.049905464 0.050011031 0.049993593 0.050012004 0.050066154 0.05000319
0.049940214 0.050038125 0.05007343 0.05003513 0.050049029 0.04994012
0.049989808 0.049975086 0.049972054 0.049952038 0.050026078 0.050007153
0.049877353 0.050022282 0.05003126 0.050043065 0.05007926 0.049936417
0.049991105 0.049975112 0.050023004 0.049968101 0.049983092 0.050039247
0.04995 0.049970008 0.050000008 0.050000008 0.049870037 0.050068159
0.050038096 0.05006244 0.049990058 0.0500772 0.05001501 0.049887169
0.050118227 0.050018121 0.049990356 0.049954005 0.049896158 0.050017014
0.050033737 0.049968056 0.049997643 0.049912069 0.050056275 0.049977034
0.049969219 0.050167136 0.049915485 0.049949352 0.050074019 0.049994305
0.049956527 0.049936343 0.049994368 0.049941123 0.050069563 0.050110556
0.050007496 0.049999487 0.050011262 0.049990449 0.049992453 0.050107248
0.050022069 0.049941115 0.049990006 0.050043002 0.050099097 0.049962014
0.050037019 0.050016001 0.04993904 0.050015006 0.050015029 0.049979027
0.049932003 0.050002072 0.050036002 0.050057147 0.050024059 0.050004039
0.049913343 0.049966328 0.049978435 0.050018098 0.050003096 0.050023008
0.049955018 0.049979214 0.050104089 0.050039124 0.049971037 0.049965013
0.049991004 0.049964011 0.049947068 0.049922001 0.050014153 0.050042003
0.050082121 0.050103035 0.050036065 0.050047066 0.049976304 0.050050031
0.049943458 0.049896333 0.050043307 0.049984999 0.050001167 0.049940113
0.050025184 0.0501443 0.050088167 0.050007619 0.050036278 0.04994173
0.050028224 0.050114632 0.049862105 0.049987275 0.049978703 0.049930204
0.050112147 0.050033376 0.049956333 0.050090715 0.050041769 0.050061584
0.050027631 0.049967416 0.049993925 0.049852442 0.049959309 0.049984466
0.050072316 0.05006472 0.049955476 0.049992651 0.049920335 0.050033696
0.050109167 0.049929406 0.049951095 0.049901202 0.04997601 0.050056044
0.050041202 0.049947046 0.04987409 0.049952 0.050021019 0.050021019
0.049895156 0.050048102 0.049971003 0.049958594 0.05002242 0.050100323
0.050051268 0.049837135 0.050072253 0.050018329 0.050020535 0.049988348
0.049882486 0.049937222 0.050020043 0.049998291 0.049991809 0.04986928
0.050055195 0.050090257 0.049960453 0.050106339 0.049905002 0.050028376
0.050062388 0.049896609 0.049936872 0.0499768 0.050052546 0.049919449
0.049976677 0.050133195 0.050027601 0.050030965 0.050014347 0.049944833
0.049999628 0.050153632 0.050038375 0.049998514 0.050049081 0.050002225
0.050099138 0.050016236 0.049997006 0.050094333 0.049996015 0.049981017
0.050047003 0.049996007 0.04997408 0.049989145 0.050061099 0.050101276
0.049988367 0.050028138 0.049989346 0.049988668 0.049943507 0.049955539
0.049923223 0.050013036 0.050096177 0.05000196 0.050043326 0.049989428
0.04988803 0.04994411 0.050018042 0.050019253 0.04994018 0.049930237
0.049985304 0.050054207 0.050114419 0.050094195 0.050066296 0.050059352
0.049984325 0.050090615 0.050024435 0.049915716 0.049896721 0.04998346
0.050046746 0.049966931 0.05003906 0.050097916 0.050100442 0.050035179
0.050064456 0.049973484 0.050020982 0.05017909 0.049858615 0.049935207
0.049959328 0.049870994 0.050112497 0.050070856 0.050010685 0.050140563
0.050041027 0.050036769 0.049994823 0.049999505 0.049973905 0.049846306
0.049978219 0.049959265 0.050069738 0.050045177 0.050029349 0.049995624
0.049879249 0.049999535 0.050020196 0.049904332 0.049925059 0.049907207
0.049953084 0.050084103 0.050007124 0.049943998 0.049898144 0.04990501
0.04997303 0.04997303 0.04991021 0.049956247 0.04989107 0.049845748
0.050050866 0.050123557 0.050080758 0.049904522 0.050029222 0.049961552
0.049967948 0.04998035 0.049908414 0.049927957 0.050004032 0.050019056
0.049994204 0.049861014 0.050053306 0.050115112 0.04995938 0.050056197
0.049920995 0.050050914 0.050038796 0.049888488 0.04992456 0.049994506
0.050063506 0.049923636 0.049926214 0.050142869 0.050040346 0.050056908
0.050037783 0.049920432 0.050021857 0.050165053 0.050050896 0.050046947
0.050067455 0.050023701 0.050085139 0.050068744 0.049992003 0.050102398
0.050071031 0.04999911 0.050087001 0.050037019 0.050038081 0.050008096
0.05009022 0.050142203 0.049972378 0.050000168 0.050051305 0.050003521
0.049961306 0.049934883 0.049839418 0.050006431 0.050203253 0.050028007
0.049997464 0.049913559 0.049864147 0.049973615 0.050042342 0.050038833
0.049933381 0.049965743 0.05000383 0.050081164 0.050083175 0.050073661
0.050091799 0.050056037 0.050031874 0.050084427 0.050093699 0.049982332
0.049822614 0.050011411 0.050076965 0.050008047 0.050018542 0.050045561
0.050111987 0.050023723 0.050084922 0.050033089 0.049996015 0.05018241
0.04988768 0.049942974 0.049950175 0.049803808 0.050085828 0.050078187
0.050056472 0.050155938 0.050063584 0.050036248 0.049987927 0.049998354
0.049954437 0.049915288 0.049953602 0.049907357 0.050061621 0.049977053
0.050023835 0.049957328 0.049910359 0.050009705 0.049910583 0.049858328
0.049926318 0.049912333 0.049937312 0.050065175 0.049943089 0.049944002
0.049925029 0.049876008 0.049935013 0.049935013 0.049875084 0.049832467
0.049849171 0.049752671 0.050048724 0.050130963 0.050045077 0.04998472
0.050046701 0.049873255 0.049872819 0.049935564 0.049929921 0.050004333
0.049991496 0.049986392 0.049993373 0.04986259 0.05003738 0.05008528
0.049957242 0.05002562 0.049960848 0.050046682 0.049991921 0.049926899
0.049939219 0.049984414 0.05003766 0.049966097 0.049947523 0.050114956
0.050029337 0.050111346 0.050081041 0.049932614 0.050054491 0.05015095
0.050057925 0.050087821 0.050094139 0.050102182 0.050084312 0.050125062
0.050062045 0.050065283 0.050087132 0.050021283 0.050112057 0.050098173
0.050118014 0.050043013 0.050109103 0.050146043 0.049973063 0.050012134
0.050090183 0.049985286 0.050018117 0.049978729 0.049835559 0.049970224
0.050203286 0.050054707 0.049966406 0.049887475 0.049904481 0.050005972
0.050065748 0.050027177 0.049924716 0.05002708 0.050057504 0.050112702
0.050034005 0.050033078 0.050134465 0.050074823 0.050045714 0.050053779
0.050130684 0.050057143 0.049895942 0.050046965 0.050098617 0.05004368
0.049987331 0.05005398 0.050114933 0.050033081 0.050108828 0.050074574
0.049975548 0.05013724 0.04992247 0.049981181 0.049950358 0.049742039
0.050053909 0.05003405 0.050087333 0.050160591 0.05007137 0.050078165
0.050006382 0.04995089 0.049964081 0.049990196 0.049887132 0.049858473
0.050042935 0.049928825 0.049954414 0.049881049 0.04994116 0.050037988
0.049807344 0.049826559 0.049946275 0.049889538 0.04991192 0.049990229
0.04990619 0.049896102 0.049911007 0.049887005 0.049905032 0.049905032
0.049805 0.049735535 0.049846228 0.049714554 0.04998336 0.050082669
0.049957432 0.049988158 0.050075926 0.049816024 0.049804896 0.049878828
0.049925257 0.050090048 0.049994126 0.049925089 0.049977478 0.04986468
0.049993265 0.050039459 0.049939781 0.050006445 0.050014302 0.050050061
0.04993736 0.049954649 0.049969885 0.049963895 0.050011706 0.050033547
0.050024748 0.050067108 0.050014913 0.050177153 0.050115254 0.049986556
0.050092626 0.050115522 0.050068464 0.050150972 0.050152984 0.050184716
0.050105978 0.050176319 0.050154548 0.050053507 0.050074354 0.050035469
0.050123215 0.050152339 0.050202031 0.050072007 0.050124999 0.050120004
0.050019007 0.050060179 0.050104044 0.049973212 0.05006706 0.050058428
0.049921457 0.049940635 0.050122384 0.050054546 0.049951293 0.049924534
0.0499648 0.050020143 0.050081003 0.050025217 0.049926247 0.050084338
0.050093047 0.050140612 0.050004382 0.050008412 0.05019417 0.050088298
0.050031312 0.050076224 0.050142422 0.050110396 0.050063618 0.050083697
0.050123639 0.050075524 0.049968775 0.050100431 0.050124463 0.05008712
0.050133664 0.050074473 0.049986824 0.050114583 0.049959771 0.05000592
0.049946234 0.049714819 0.050032113 0.049961653 0.050104607 0.050162435
0.050046187 0.050115816 0.050044633 0.049895044 0.049979322 0.05001159
0.049832948 0.049816255 0.050014731 0.049925394 0.049872927 0.049798191
0.049923029 0.050021809 0.049716193 0.04983639 0.049940564 0.049840849
0.049872771 0.049885377 0.04990451 0.049822334 0.049848102 0.049901001
0.0498631 0.0498631 0.049722083 0.049683493 0.049844295 0.049721614
0.049861267 0.049959432 0.049878038 0.049936656 0.050052155 0.049789049
0.049795013 0.049829934 0.049905252 0.050102584 0.049994182 0.049876414
0.049958471 0.049881123 0.049925637 0.049980629 0.049910832 0.049993943
0.050054111 0.050051253 0.049903605 0.04996448 0.049991373 0.049941208
0.050005242 0.050103236 0.050108045 0.050039902 0.050031479 0.050227836
0.050133206 0.050074197 0.050137531 0.050079662 0.050108161 0.050234117
0.050229132 0.050233427 0.050144397 0.05019778 0.05021216 0.050107308
0.050099954 0.050060663 0.050148495 0.050188348 0.050277233 0.050091039
0.050160114 0.050118018 0.050090037 0.050110284 0.05010001 0.049995285
0.050083082 0.050111268 0.05003421 0.049950276 0.050036393 0.050027553
0.049963232 0.04999679 0.0500139 0.050033323 0.050084203 0.050055169
0.049948931 0.050124627 0.050098538 0.050148651 0.050008457 0.050017077
0.050238736 0.050090607 0.050037902 0.050162297 0.050152242 0.050152797
0.050225452 0.050124623 0.05015295 0.050117519 0.049988162 0.050158087
0.050160237 0.050152954 0.050137576 0.050037719 0.0500414 0.050142676
0.049996 0.050015379 0.049948227 0.049747806 0.050013974 0.049904209
0.050100077 0.050134815 0.05000177 0.050106488 0.050084114 0.04987333
0.049955703 0.049964968 0.049815185 0.049780607 0.049999274 0.049942058
0.049814545 0.04972503 0.049844541 0.049944948 0.049659237 0.049860924
0.049877245 0.049791299 0.049829528 0.049782723 0.049909092 0.049757533
0.049753569 0.049880009 0.049792212 0.049792212 0.049655195 0.049655408
0.04981938 0.049728822 0.049729515 0.049801592 0.049840692 0.049880177
0.049968999 0.049751773 0.049810395 0.049790815 0.049877662 0.050028984
0.049953233 0.049846657 0.049945313 0.049916506 0.049867332 0.049913727
0.049891595 0.049988601 0.050060622 0.050030444 0.049892291 0.049969364
0.049994834 0.049925778 0.050019205 0.050153013 0.050151732 0.050054554
0.050074562 0.050258569 0.050159991 0.050167657 0.050194837 0.050075397
0.050182097 0.050312769 0.050307024 0.050254628 0.050187442 0.050195716
0.050226413 0.050207511 0.05018517 0.050118919 0.050202958 0.050215326
0.050331563 0.050111096 0.050238319 0.050165087 0.050142035 0.05015428
0.05010201 0.05003437 0.050066087 0.050109193 0.050116036 0.049992722
0.050003286 0.050007734 0.049996298 0.05007213 0.050048936 0.050062604
0.050065499 0.050111081 0.04999553 0.050147895 0.050096881 0.05013812
0.050047629 0.050046306 0.050247278 0.050109334 0.050092075 0.050273303
0.050179914 0.050202649 0.050319318 0.050174657 0.050180268 0.050191686
0.050059576 0.050208613 0.050217211 0.05020022 0.050124779 0.049989905
0.050120715 0.05019575 0.050032813 0.050029043 0.049965594 0.049838092
0.049990159 0.04989025 0.050078396 0.050062913 0.049962536 0.050045755
0.050093498 0.049875367 0.049886044 0.049876478 0.049825024 0.04976381
0.050001755 0.049936082 0.049772888 0.049667031 0.049734123 0.049836058
0.049641021 0.049836453 0.04976638 0.049765918 0.049791068 0.049702257
0.049880836 0.049714528 0.049658421 0.04980202 0.049693301 0.049693301
0.049615245 0.049626287 0.049760524 0.049694154 0.049638208 0.049667254
0.049825147 0.049820673 0.049860001 0.049684647 0.04979641 0.049748074
0.049836438 0.049905084 0.049862929 0.049826503 0.049926724 0.049933199
0.049841542 0.049871843 0.049891785 0.049987223 0.050036732 0.049983386
0.049884789 0.049983662 0.049992889 0.049931031 0.050045114 0.050170846
0.050142433 0.050106864 0.050118323 0.050272062 0.050228387 0.050244503
0.05026627 0.050128289 0.050267071 0.050374035 0.050392091 0.050278898
0.050232939 0.050200578 0.050239384 0.050305698 0.050304946 0.050214432
0.050278768 0.050255522 0.050363965 0.050148305 0.050353434 0.050238039
0.050166037 0.05019911 0.050127015 0.050051317 0.050031018 0.050077111
0.050167002 0.050055392 0.050041255 0.050028961 0.050031658 0.050126337
0.050083164 0.050108828 0.050019007 0.050165031 0.050058782 0.050161101
0.050120052 0.050132982 0.050115231 0.050089978 0.050238509 0.050164066
0.050187569 0.050371386 0.050230041 0.050254866 0.050337519 0.050230645
0.050210875 0.050314311 0.050178785 0.050238576 0.050270543 0.050226763
0.050124474 0.049968746 0.050197322 0.050234076 0.050080709 0.0500561
0.049989317 0.049951211 0.049969792 0.049921274 0.050046138 0.049974333
0.049941361 0.049963772 0.050043829 0.049853608 0.049804009 0.049787682
0.04984308 0.049766175 0.049984869 0.049888663 0.049726255 0.049622077
0.049629815 0.049737372 0.049633872 0.049728505 0.049653869 0.049759921
0.04975256 0.049647942 0.04979955 0.049690474 0.049579211 0.049671035
0.049578324 0.049578324 0.049583327 0.049580183 0.0496528 0.049612693
0.049599282 0.049585234 0.049800601 0.049731795 0.049740598 0.049594242
0.049729217 0.049680609 0.049776178 0.049780626 0.049757868 0.049818598
0.049884159 0.049892813 0.04982549 0.049865987 0.049898241 0.049989849
0.050002001 0.049927421 0.049868848 0.050006229 0.050002996 0.049959887
0.050073083 0.05014712 0.050104186 0.05018428 0.050146177 0.050273534
0.050343271 0.050307337 0.050347969 0.050233386 0.050344173 0.05042769
0.050494581 0.050332036 0.050283104 0.050237849 0.050296232 0.050381988
0.050421745 0.050325431 0.050357047 0.050326224 0.050385572 0.050220903
0.050471526 0.050314084 0.050188091 0.050246 0.050179001 0.050038144
0.049997002 0.050065029 0.050216008 0.050137226 0.050124444 0.050096899
0.050063442 0.050146244 0.050119653 0.05016173 0.049966749 0.050189175
0.050131802 0.050176442 0.050181396 0.050161045 0.050204635 0.050158769
0.050254222 0.050257042 0.050299961 0.050431196 0.050299272 0.05030001
0.050303631 0.050294273 0.050259508 0.05047629 0.050318189 0.050254099
0.050301064 0.05024419 0.050159752 0.0499998 0.050251063 0.050247502
0.05014034 0.050089844 0.050012331 0.050045662 0.04997436 0.049973741
0.050006293 0.049907234 0.049933046 0.049882341 0.049934801 0.049777001
0.049745474 0.049732104 0.049859859 0.049758323 0.049915139 0.049812868
0.049667109 0.049588829 0.049551792 0.049670558 0.049607392 0.049561605
0.04957648 0.049738541 0.049697291 0.049605906 0.049667012 0.049669582
0.049507346 0.049511101 0.049455237 0.049455237 0.04951749 0.049521141
0.049488194 0.049500309 0.04958044 0.049543977 0.049769428 0.049610689
0.049603458 0.049488112 0.049613331 0.049572505 0.049703974 0.049694296
0.049670722 0.049822632 0.049816996 0.049799323 0.049784698 0.049856339
0.049884129 0.050003316 0.049977515 0.049881067 0.049848799 0.05001875
0.050026283 0.049998038 0.050086372 0.050088618 0.050074965 0.050269108
0.050161794 0.050281215 0.050470587 0.05036876 0.050422721 0.050363068
0.050419319 0.050498869 0.050608795 0.050413027 0.050350349 0.05031338
0.050418459 0.050461534 0.05052077 0.05042481 0.050423346 0.050417431
0.050410274 0.050324809 0.05055473 0.050385885 0.050262183 0.050290041
0.050242025 0.050027024 0.049973007 0.050113004 0.050277203 0.050227128
0.050205983 0.050181497 0.050101273 0.050138898 0.050160337 0.050216347
0.049951497 0.050172649 0.050207809 0.0502191 0.050262332 0.050232865
0.05030803 0.050262254 0.050321441 0.050369367 0.05040523 0.05044559
0.050388288 0.050334804 0.050263733 0.050366711 0.050333269 0.050642528
0.050446704 0.050285656 0.050312929 0.050260674 0.050237272 0.050084878
0.05027464 0.050245948 0.050195377 0.050116494 0.050034013 0.050096329
0.050006527 0.050018203 0.049959511 0.04988049 0.04990878 0.049802601
0.049808327 0.049665239 0.049717315 0.049710926 0.04986864 0.049711242
0.049797662 0.049728304 0.04960762 0.04956264 0.049486186 0.049624994
0.049542751 0.049390256 0.049533341 0.049672488 0.049622443 0.049542163
0.049503021 0.049627978 0.049433708 0.049345352 0.049325075 0.049325075
0.049390562 0.049456172 0.049295463 0.049372341 0.049536303 0.049507909
0.049738642 0.049486037 0.049449731 0.049366988 0.049470391 0.049429782
0.049630836 0.049663968 0.049601823 0.049817998 0.049736198 0.049702223
0.049710698 0.049782589 0.049829677 0.050021332 0.049974278 0.049855713
0.049837809 0.050002366 0.050043374 0.050018478 0.050076842 0.050018396
0.050087042 0.050345469 0.050171178 0.05030695 0.050560731 0.050433867
0.050468665 0.050487429 0.050517011 0.05060304 0.050713137 0.050490461
0.050440393 0.05042525 0.050600197 0.05058869 0.050609339 0.050498769
0.050479621 0.050515071 0.050450362 0.050434079 0.05059186 0.050461713
0.050417189 0.050332036 0.050293013 0.050058 0.049972072 0.050222006
0.050331123 0.050291076 0.050251782 0.050243165 0.050156523 0.050139546
0.050202034 0.050260909 0.050007708 0.050134335 0.050277773 0.050307661
0.050326385 0.050338853 0.050426502 0.050388731 0.050424978 0.050467856
0.050491836 0.050438628 0.050496221 0.05036791 0.050265267 0.050445285
0.050422363 0.050772034 0.050548211 0.050364621 0.050310977 0.050267149
0.050331984 0.050206736 0.050277982 0.050244536 0.050227161 0.05012957
0.050054122 0.050091546 0.050047588 0.050038163 0.049915276 0.049883436
0.04984504 0.049729288 0.049716789 0.049570352 0.049692802 0.049694974
0.049858194 0.049634472 0.049668625 0.049636655 0.049576338 0.049536671
0.049411468 0.049574889 0.049436335 0.049251091 0.049495503 0.049556617
0.049543638 0.049419146 0.049331576 0.049544543 0.049367804 0.049191911
0.049183 0.049183 0.049230274 0.049381237 0.049135275 0.049225461
0.049443543 0.04944675 0.049686488 0.049385142 0.04931378 0.04923987
0.049317919 0.049273577 0.049551073 0.049670376 0.049529962 0.049786944
0.049659524 0.049645327 0.049628638 0.049626172 0.049738187 0.050016865
0.049983934 0.049848638 0.049839687 0.049953427 0.050035186 0.050013024
0.050053172 0.049973227 0.050145939 0.050400198 0.050164741 0.050351426
0.050576221 0.05048833 0.050481509 0.050595634 0.050655525 0.050725751
0.050788578 0.050525095 0.050544705 0.050570227 0.050815143 0.050775114
0.050700426 0.050551388 0.050554182 0.050615028 0.050507218 0.050516985
0.050597437 0.05054402 0.050619006 0.050383013 0.050315101 0.050140999
0.050012011 0.050349135 0.050351877 0.050301105 0.050260607 0.050253104
0.050216179 0.050179366 0.050237432 0.050269574 0.0501289 0.050097443
0.050326213 0.050429165 0.050355799 0.050470602 0.050554615 0.050509442
0.050525226 0.050521724 0.050558578 0.050458614 0.050614141 0.050406918
0.050338063 0.050521851 0.050503321 0.050839592 0.050629452 0.050502051
0.050301183 0.050245479 0.050400432 0.050329424 0.05027635 0.050252855
0.050226595 0.050134044 0.050063618 0.0500408 0.050085541 0.050039474
0.049886882 0.04988727 0.049754415 0.049684353 0.049682938 0.049527865
0.04964206 0.049648102 0.049814075 0.04957065 0.049549289 0.049521971
0.049589049 0.049497191 0.04932227 0.0495103 0.049297433 0.049137048
0.049425036 0.049405143 0.049475897 0.04923192 0.049175985 0.049415726
0.049328256 0.04906334 0.049031049 0.049031049 0.049102001 0.04927931
0.049063727 0.04905349 0.049310986 0.049368434 0.04956995 0.049311407
0.049238518 0.049134597 0.049174838 0.049127653 0.049445242 0.049667325
0.049443766 0.049735077 0.049603172 0.0496337 0.04956701 0.049433101
0.049645606 0.049961489 0.049987465 0.049847897 0.049842875 0.04990134
0.050002664 0.050010294 0.050041616 0.049990728 0.050232723 0.050433964
0.050150536 0.050397787 0.050519109 0.050532181 0.050488558 0.050685409
0.050812356 0.050826326 0.050826378 0.050519966 0.050647013 0.050731972
0.05102459 0.050983388 0.050784994 0.05060561 0.050684907 0.050729282
0.050586019 0.050567001 0.050596036 0.050625999 0.050784487 0.050450347
0.050291404 0.050255049 0.050097801 0.050431658 0.050330881 0.050259393
0.050254416 0.05020136 0.050243624 0.05025835 0.050251033 0.050214335
0.050256342 0.050072301 0.050341018 0.050533369 0.050356902 0.050630525
0.050683863 0.050602354 0.050586328 0.050524913 0.050606128 0.050534487
0.050733037 0.050461452 0.050483502 0.050592419 0.050552391 0.050841846
0.050696813 0.05067832 0.050303172 0.050196357 0.050417766 0.0504185
0.050290547 0.050271068 0.050209314 0.05014481 0.050055645 0.049988117
0.050120462 0.050035432 0.049890812 0.049873352 0.04968138 0.049700189
0.049694154 0.049532272 0.049554974 0.049567588 0.049719959 0.049559288
0.049428158 0.049373996 0.049635187 0.049428914 0.049252849 0.049434599
0.049140934 0.049027406 0.049306743 0.049232636 0.049410574 0.049024288
0.049052648 0.049259238 0.049317133 0.048962906 0.048890028 0.048890028
0.04904718 0.049141426 0.049079277 0.048868164 0.04917277 0.049302291
0.04937702 0.049241681 0.049236417 0.049074121 0.049058877 0.049002066
0.049305294 0.049609799 0.049357809 0.049689617 0.049575031 0.049634803
0.049527105 0.049282953 0.049593963 0.049852796 0.049973231 0.049836941
0.049824286 0.049881969 0.04996698 0.050047934 0.050072718 0.050084811
0.050322257 0.050453417 0.050167251 0.050429136 0.050443523 0.050583031
0.050536912 0.050750986 0.050945207 0.050866019 0.050837282 0.050522882
0.050748762 0.050884716 0.051191587 0.051138218 0.050852336 0.050694562
0.050898053 0.05086749 0.050685417 0.050612655 0.05060444 0.050690699
0.050833389 0.050518312 0.050223947 0.050365366 0.050217975 0.050429773
0.050293509 0.050192408 0.050246153 0.050083175 0.050202075 0.050336417
0.050223671 0.050093144 0.050298154 0.050052043 0.050331049 0.050552025
0.050361 0.050813064 0.050806098 0.050664052 0.050608791 0.050513476
0.050631884 0.050651956 0.050847322 0.050542779 0.050670452 0.050660554
0.050569449 0.050805569 0.050744601 0.050844662 0.050351944 0.050164104
0.050409742 0.050453391 0.050330814 0.050295901 0.050204411 0.050185796
0.050038122 0.049996436 0.05015479 0.050027408 0.049934611 0.049839016
0.049670473 0.049786657 0.049715981 0.049546737 0.049443811 0.04948388
0.049557351 0.049596231 0.049287576 0.049207319 0.049677141 0.049322672
0.049244251 0.049354941 0.048989642 0.048914518 0.049163498 0.04905729
0.049309496 0.04887243 0.048972707 0.049109612 0.049294341 0.048883099
0.048790023 0.048790023 0.049046263 0.048994724 0.049129114 0.048706386
0.049066413 0.04926914 0.049165115 0.049152486 0.049267314 0.049052984
0.048982792 0.048902344 0.049150422 0.049473006 0.049288321 0.049668495
0.049562044 0.049607448 0.049504045 0.049237575 0.049602084 0.049731024
0.049944051 0.049818307 0.049769245 0.049916115 0.049949761 0.050122708
0.050150976 0.05023298 0.050394632 0.050467476 0.050256003 0.05044901
0.050418913 0.050669495 0.050653867 0.05079459 0.051018737 0.050856005
0.050836667 0.050600961 0.050860196 0.051007047 0.051287055 0.051189013
0.05090509 0.050849188 0.051161211 0.051030669 0.050788473 0.050679896
0.050623409 0.05070886 0.050759193 0.050552819 0.050141774 0.050437517
0.050339438 0.05035134 0.050276425 0.050112508 0.050209206 0.049901076
0.050088573 0.050355397 0.050151266 0.049938004 0.050194178 0.050024968
0.050315462 0.050463039 0.050380144 0.050978776 0.050913479 0.050702132
0.050627232 0.050541021 0.050648004 0.050763004 0.050963219 0.050662667
0.050851751 0.050738476 0.050583545 0.050782394 0.050771859 0.05094019
0.050470077 0.050214671 0.050439756 0.050450277 0.05039788 0.050323572
0.050229255 0.050265122 0.050041392 0.050094403 0.050168045 0.050006714
0.050000969 0.049786624 0.049729519 0.049917497 0.0497282 0.049539384
0.04933418 0.049428064 0.049326301 0.049623705 0.04914799 0.049067702
0.049663149 0.049181476 0.049308967 0.04926718 0.048875585 0.048820473
0.04903939 0.048896611 0.049143977 0.048824437 0.048944969 0.0490073
0.049197081 0.048807226 0.048751324 0.048751324 0.049031015 0.048881304
0.049142182 0.048619688 0.049006529 0.049240272 0.049029347 0.049053818
0.04926395 0.049049646 0.048945215 0.048840001 0.049017351 0.04927513
0.049233671 0.049644772 0.049537819 0.049538579 0.049496979 0.049298547
0.049655296 0.049646109 0.049908657 0.049815401 0.049697805 0.049992368
0.049961161 0.050181903 0.050256848 0.050374072 0.050434802 0.050479483
0.050425127 0.050480969 0.050479565 0.05078968 0.05081616 0.050844014
0.051033299 0.050864052 0.050839078 0.050783161 0.050994147 0.051091723
0.051301215 0.051152516 0.050967507 0.051068105 0.051389653 0.051199738
0.05087084 0.050771948 0.050632738 0.050674208 0.05062246 0.050535902
0.050090969 0.05045649 0.050405715 0.050234035 0.050292354 0.050000932
0.050093118 0.049684942 0.049934231 0.050269142 0.050032187 0.049799286
0.049967378 0.049984176 0.050308205 0.050318263 0.050402567 0.051064584
0.050972272 0.050738327 0.050675377 0.050650988 0.050689384 0.050829899
0.051079724 0.050816059 0.050993022 0.05083026 0.050632618 0.050822046
0.05079468 0.05092869 0.05063796 0.050379809 0.050557211 0.050456692
0.050480198 0.050358664 0.050278965 0.050366201 0.050097145 0.050246086
0.05012786 0.049970001 0.050053038 0.049723621 0.04981377 0.050029766
0.049728233 0.049517486 0.049250618 0.04940467 0.049070101 0.04957395
0.049067739 0.049005691 0.049550436 0.049035817 0.049399573 0.049160287
0.048830207 0.048773065 0.048961826 0.048764389 0.048929505 0.048855223
0.048957024 0.04897425 0.048994914 0.048727989 0.048760749 0.048760749
0.048952248 0.048817787 0.049077626 0.048630077 0.048975281 0.049159929
0.04901085 0.048985623 0.049192704 0.049047314 0.048941959 0.048825853
0.048937082 0.049063459 0.049185924 0.049570572 0.049475957 0.049439959
0.04951515 0.049413715 0.049720768 0.049623463 0.049869131 0.049857121
0.049659681 0.050070759 0.050006025 0.050173473 0.05035717 0.050444845
0.050443869 0.050496321 0.05063165 0.05055489 0.050612543 0.050907221
0.05097511 0.050946124 0.051052261 0.050947424 0.050885126 0.051032256
0.05115978 0.051143914 0.05126904 0.051105209 0.051079892 0.051292669
0.051503558 0.05134315 0.050925057 0.050872263 0.05060938 0.050614685
0.050513461 0.050491147 0.050107311 0.050412178 0.050362609 0.050096564
0.050319329 0.049828846 0.049867585 0.049494896 0.049768098 0.050067034
0.049865704 0.049704831 0.04971642 0.049939215 0.050302345 0.050202731
0.050423618 0.05100948 0.050945368 0.050780926 0.050764952 0.050843403
0.05079357 0.050872035 0.051186394 0.050985683 0.05108428 0.050946105
0.050738055 0.050944287 0.050854303 0.050841339 0.050809409 0.050625607
0.050756853 0.050513022 0.050571654 0.050418224 0.050335888 0.050463196
0.050215188 0.05036664 0.050025202 0.049926747 0.050063118 0.049669996
0.049854849 0.050058093 0.049715068 0.049515754 0.049208149 0.049388602
0.04886622 0.049423564 0.04909616 0.049035292 0.049340673 0.048929412
0.049424801 0.049027245 0.048863105 0.048781682 0.04891894 0.048658211
0.048725985 0.048877437 0.048961699 0.048985247 0.048738685 0.048646912
0.048787788 0.048787788 0.048811983 0.048776519 0.048939601 0.048705265
0.048932608 0.048995618 0.049048807 0.048972692 0.049083792 0.049045563
0.048962951 0.048847608 0.048911545 0.048902933 0.04915306 0.049418177
0.04937366 0.049345244 0.04955022 0.04951169 0.049763389 0.049638003
0.049818575 0.049941279 0.049703848 0.050121114 0.050080389 0.050109986
0.050425529 0.050426487 0.050429769 0.050532177 0.050807972 0.050677206
0.050777819 0.050995048 0.05109255 0.051136184 0.051137 0.051135059
0.050996237 0.051288206 0.051352065 0.051189288 0.051255997 0.051139873
0.051266793 0.05145869 0.051482569 0.051424865 0.050975986 0.050960943
0.050561465 0.050575737 0.050490607 0.050470635 0.050187182 0.050300147
0.050186951 0.049922112 0.050297111 0.049603283 0.049563721 0.049379122
0.049583074 0.049762864 0.049659807 0.049637992 0.049548108 0.049911462
0.050278589 0.050176166 0.050459277 0.050821025 0.050834619 0.050826672