# vtk DataFile Version 3.0
axinsert(project(???,0,L2),2)
ASCII
DATASET STRUCTURED_POINTS
DIMENSIONS 256 1 1
ORIGIN 0 0 0
SPACING 1 1 1
POINT_DATA 256
SCALARS nrrd62743 float
LOOKUP_TABLE default
0 0 0 0 0 0 0 0 0 0 0 0 0 0 0 0 0 0 0 0 0 0 0 0 0 0 0 0 0 2.4494898e-06
1.9261361e-05 0.00013481098 0.00094871968 0.0063141091 0.038969491
0.21523739 0.97598708 2.2962177 1.4337193 1.5349318 1.3519137 0.94067192
1.1565331 1.5626829 1.8225615 1.756513 1.5234064 1.8019333 1.7551426
1.6466063 2.0404947 2.4766593 2.0959568 1.6261666 1.2962207 1.1045967
0.99925351 0.93668348 0.89500815 0.86488247 0.84166276 0.82290155
0.80693799 0.79268736 0.77938372 0.7666434 0.75445461 0.74281329 0.73172069
0.72115457 0.71108794 0.70152324 0.69252419 0.68366623 0.6752432 0.66718519
0.65946937 0.65200484 0.64474559 0.63768387 0.63079858 0.62420237
0.61840564 0.61279517 0.60783184 0.60348487 0.59945714 0.59548944
0.59136361 0.58669955 0.58204979 0.57739973 0.57288444 0.56874472
0.56510121 0.56204587 0.55916154 0.55628365 0.55304742 0.54890621
0.54408741 0.53858048 0.53242308 0.52666104 0.52221107 0.51870584
0.51706702 0.51669377 0.51617742 0.51376903 0.50951278 0.49873888
0.48652807 0.4746682 0.46237949 0.46495533 0.53198934 0.6700111 0.74815637
0.76922411 0.76903075 0.76201439 0.74986845 0.74708611 0.74905902
0.73683763 0.6704756 0.50333905 0.50333905 0.43137839 0.39517513 0.40891835
0.43274251 0.42928892 0.40268263 0.35949585 0.3112334 0.27343762 0.25338009
0.246889 0.24577247 0.24496765 0.24449679 0.24605228 0.2511481 0.25857434
0.26709238 0.27452287 0.27885798 0.27910751 0.27492791 0.26624873 0.255348
0.24578245 0.23895657 0.23534808 0.23580042 0.24143796 0.25316593 0.268913
0.29157436 0.31390715 0.33447939 0.36009502 0.39484477 0.43612942
0.47887176 0.51959324 0.55958176 0.60193449 0.64824957 0.69757169
0.74734306 0.79500371 0.83828652 0.87361658 0.90001434 0.91750199
0.92375451 0.91820729 0.90037858 0.87342459 0.84090286 0.80679572
0.77474707 0.74638188 0.71987921 0.68940443 0.65041769 0.58738583
0.51326364 0.45326957 0.4122352 0.37500349 0.33563554 0.28586182 0.22180091
0.13792667 0.057543311 0.010845504 0.00099330815 8.3677958e-05
6.8556546e-06 0 0 0 0 0 0 0 0 0 0 0 0 0 0 0 0 0 0 0 0 0 0 0 0 0 0 0 0 0 0 0
0 0 0 0 0 0 0 0 0 0 0 0 0 0 0 0 0 0 0 0 0 0
