# vtk DataFile Version 3.0
axinsert(project(permute(???,2,0,1),0,L2),2)
ASCII
DATASET STRUCTURED_POINTS
DIMENSIONS 128 256 1
ORIGIN 0 0 0
SPACING 1 1 1
POINT_DATA 32768
SCALARS nrrd10187 float
LOOKUP_TABLE default
0.049992051 0.049982063 0.050003152 0.049983058 0.049951635 0.050043084
0.049999047 0.049974255 0.050021496 0.050020032 0.050002184 0.050018147
0.050002117 0.050047215 0.050039127 0.050003089 0.04999109 0.049971085
0.050000999 0.050038308 0.050010007 0.0499685 0.049961083 0.04996508
0.050020162 0.050030224 0.049997013 0.049993142 0.050059028 0.050010853
0.049937051 0.049979027 0.049977001 0.049984053 0.050014131 0.050014004
0.049959071 0.049960207 0.049978141 0.050009459 0.050028067 0.050070044
0.05004026 0.049952999 0.049958039 0.049996208 0.050075002 0.050044172
0.049979005 0.049956001 0.049959 0.04998805 0.049966998 0.049991384
0.050016038 0.05003918 0.050016012 0.049994092 0.050056018 0.050029155
0.049970023 0.049966089 0.049972001 0.049998 0.050005998 0.050014012
0.049996998 0.050003093 0.050022028 0.049995132 0.050000999 0.050026003
0.049977101 0.049962018 0.049959004 0.049996253 0.050020091 0.049980044
0.050031293 0.050004005 0.05000801 0.050014 0.050005075 0.049993023
0.050040014 0.050039317 0.050002046 0.04998121 0.049954005 0.049981017
0.050002065 0.05003703 0.049995191 0.050010033 0.050028224 0.050011154
0.050008304 0.049984127 0.05001609 0.050015353 0.050020177 0.049988642
0.049983028 0.050035331 0.049949337 0.049957 0.050011385 0.049979001
0.050019015 0.049985088 0.050009079 0.05004409 0.049983092 0.049990024
0.04996426 0.049963057 0.050007001 0.050005004 0.050034095 0.050044321
0.049982008 0.049991123 0.050010007 0.050019231 0.050004005 0.049990244
0.049967054 0.049967054 0.049998 0.049981114 0.049934998 0.049929004
0.049901109 0.050085004 0.049983107 0.049927011 0.050052159 0.050007019
0.049960475 0.05000405 0.050064474 0.050133009 0.050105423 0.05001701
0.050020348 0.049988251 0.050021019 0.04997718 0.049956426 0.049966998
0.049980097 0.049975142 0.050039012 0.050122004 0.049973283 0.049979005
0.050117157 0.050023001 0.049916152 0.049964081 0.049964298 0.049906101
0.049985006 0.049982086 0.049944136 0.050006237 0.049988117 0.050009146
0.05006209 0.050147317 0.050032053 0.049962152 0.049930282 0.049947239
0.050071012 0.050026003 0.049910054 0.049935091 0.050021023 0.050060045
0.04993435 0.049989022 0.050114803 0.049989257 0.049949139 0.049977075
0.050113067 0.050046124 0.050032008 0.05001748 0.049945503 0.04993635
0.050015118 0.050023384 0.049990077 0.049992561 0.050001021 0.0500292
0.049965154 0.05001609 0.049977012 0.049927194 0.049947999 0.049971562
0.049948029 0.050008111 0.050073031 0.050024286 0.050055027 0.050005481
0.04997104 0.0500613 0.050055224 0.050042018 0.049964078 0.049926009
0.050020024 0.04996828 0.049933344 0.050115008 0.050078303 0.050067436
0.050036404 0.049947385 0.050006013 0.049998231 0.050054263 0.050001506
0.050008167 0.049999107 0.049927529 0.050022002 0.049942102 0.050002117
0.050011549 0.049834084 0.049970001 0.050037049 0.050035175 0.050027009
0.050030012 0.050060108 0.049925346 0.049912151 0.050046179 0.049977422
0.050047006 0.050061226 0.050003 0.049972411 0.049993005 0.050029118
0.049956009 0.049950037 0.049968075 0.049968075 0.050045077 0.049985006
0.049885035 0.049869005 0.049972013 0.050034039 0.049978208 0.04997116
0.050004069 0.049961008 0.049955126 0.049979035 0.050058261 0.050094001
0.050058629 0.050087057 0.050066143 0.050051011 0.050002053 0.049889077
0.049950086 0.050046001 0.050042011 0.050047014 0.05000113 0.050111007
0.049912028 0.049964145 0.050058004 0.050004415 0.050064016 0.049988009
0.049995001 0.049908061 0.049942035 0.049905073 0.049951032 0.050117031
0.050024007 0.049989074 0.05010901 0.050110295 0.049988016 0.050029211
0.049944088 0.049895115 0.049959015 0.049967017 0.049924001 0.050044145
0.050088339 0.050104208 0.049952421 0.050053272 0.050113633 0.049859077
0.049939107 0.050008275 0.050079405 0.049993277 0.050087176 0.050101209
0.049956337 0.049894139 0.049988266 0.05002204 0.050065301 0.049932539
0.04994005 0.050085261 0.049947105 0.04994129 0.049993999 0.04996619
0.049984094 0.049968258 0.049933191 0.05004869 0.050071329 0.050063789
0.050052647 0.049966395 0.049995322 0.050108802 0.049958613 0.049982287
0.049942374 0.04992222 0.050104402 0.050036348 0.049887072 0.050067186
0.050133299 0.050067198 0.050043151 0.049860429 0.049990024 0.050083417
0.050054427 0.049970254 0.049990274 0.050049342 0.049889486 0.04994813
0.050021283 0.050070286 0.049983427 0.049789175 0.049866475 0.050058004
0.050048228 0.049995009 0.050094295 0.050114155 0.049990363 0.049893573
0.050038129 0.049951334 0.049981106 0.050043076 0.050035093 0.050011054
0.049978264 0.049950019 0.049974009 0.049879108 0.049971052 0.049971052
0.05010708 0.049964014 0.049883023 0.049842998 0.049968999 0.049972069
0.05004213 0.050009042 0.04992814 0.049971044 0.049979061 0.049965013
0.050019104 0.050039072 0.050011348 0.050141118 0.050066277 0.050052367
0.049967404 0.04994145 0.050033037 0.050096035 0.050041016 0.050045069
0.049973 0.050056227 0.0498771 0.049922191 0.050019275 0.050010379
0.05016413 0.049995121 0.050001092 0.049975153 0.049982 0.049884003
0.049924999 0.050111033 0.050028048 0.049986999 0.050144028 0.050124027
0.050014 0.050030071 0.049913999 0.049890038 0.04996904 0.049987145
0.049978077 0.050110582 0.050059281 0.050095331 0.049949199 0.050048407
0.050046038 0.049852099 0.050011128 0.050072484 0.050092548 0.049960528
0.050030459 0.050079141 0.049933236 0.049917024 0.049969614 0.050032072
0.050150622 0.04988014 0.049932368 0.050052136 0.04997009 0.049919315
0.04995006 0.050028101 0.049984414 0.050002169 0.050025482 0.0500606
0.050096575 0.050085008 0.049993698 0.049931642 0.050054524 0.050102983
0.04992358 0.049977876 0.049937695 0.0499379 0.050093982 0.050110728
0.049886588 0.049961809 0.050082564 0.050027374 0.0500842 0.049865641
0.050000384 0.050159808 0.050029814 0.04994449 0.050034784 0.050050616
0.049868848 0.049946498 0.05002179 0.050053395 0.049968563 0.049844362
0.049834292 0.049995501 0.050033402 0.050031196 0.050137494 0.050082564
0.050036274 0.04985575 0.049976148 0.049977235 0.049939271 0.050042097
0.049998093 0.050016001 0.049961053 0.049893036 0.050023999 0.049860049
0.04995003 0.04995003 0.050125018 0.049951091 0.049901001 0.049834035
0.049883008 0.049926482 0.050106093 0.049986117 0.049865276 0.050012246
0.049981225 0.049959313 0.050007187 0.050018493 0.050024297 0.050113264
0.049983658 0.050013155 0.04998406 0.050029781 0.050109349 0.050136324
0.05001922 0.049986523 0.049946543 0.050013851 0.049927924 0.049896285
0.049996711 0.050052427 0.05015241 0.050013844 0.04997126 0.050013095
0.050065178 0.049920265 0.049979042 0.050057001 0.049993206 0.049998056
0.050155126 0.050156008 0.050040014 0.050030999 0.049922004 0.049945004
0.050022144 0.049995184 0.050045211 0.050120756 0.050020237 0.050085466
0.049959198 0.049977731 0.049995001 0.049922388 0.050057195 0.050134644
0.05009253 0.049970485 0.049982812 0.050031282 0.049886391 0.049988091
0.050016932 0.050033405 0.050104793 0.049862009 0.04995184 0.049979053
0.050012335 0.049924307 0.049916435 0.05008724 0.050009686 0.049994413
0.050054517 0.050063383 0.050145518 0.050084732 0.049989499 0.049927086
0.050068706 0.05011506 0.049950041 0.050002396 0.049949408 0.049970917
0.05007204 0.050120536 0.049899545 0.049915075 0.05003044 0.049982417
0.050102983 0.049916424 0.050032519 0.050175976 0.049991421 0.049953602
0.050038952 0.050050102 0.049878299 0.049933117 0.05000161 0.0500209
0.049973026 0.049921967 0.049884852 0.049915012 0.049953811 0.050031863
0.050180569 0.050057128 0.050020382 0.049848881 0.049912527 0.050002325
0.049923565 0.049976226 0.049934074 0.049987011 0.049927004 0.049888007
0.049974009 0.049918376 0.049985163 0.049985163 0.050076012 0.049944263
0.049904026 0.049819302 0.04979407 0.049910892 0.050136153 0.049958687
0.049863379 0.04999556 0.049959902 0.049976807 0.049976636 0.050006367
0.05006979 0.050057992 0.049887385 0.049979962 0.050030652 0.050077457
0.050141331 0.050127346 0.05000684 0.049944453 0.049925081 0.049974885
0.050009683 0.049954932 0.049975369 0.050077073 0.050078306 0.050048087
0.04995482 0.050019015 0.050138734 0.0499672 0.050073467 0.050038293
0.049961451 0.050020371 0.050195243 0.05019407 0.050037093 0.050050102
0.04994902 0.050023008 0.05008512 0.050006084 0.050120272 0.050113499
0.049999293 0.050085511 0.050000325 0.049914051 0.049970143 0.049988903
0.050067514 0.050161902 0.050060589 0.05000947 0.049983881 0.049992505
0.049856618 0.050033428 0.050065856 0.05002166 0.049968611 0.049888007
0.049980972 0.04994214 0.050073709 0.049943551 0.04992694 0.050090905
0.050023768 0.049978986 0.050013643 0.050059479 0.05017259 0.05007958
0.050055534 0.049970429 0.050060257 0.050152496 0.049984924 0.050022881
0.050007217 0.050015125 0.050048176 0.050055858 0.049941801 0.049960125
0.049999937 0.049971603 0.050087042 0.049944039 0.050073337 0.050150614
0.04998558 0.05000902 0.04998311 0.050078515 0.049886841 0.049865495
0.049992967 0.049976438 0.049976006 0.049968287 0.049957201 0.049864501
0.049867604 0.049995154 0.050174002 0.050040506 0.049995754 0.049887277
0.049861331 0.049987692 0.04990989 0.049891546 0.04988325 0.049955189
0.049903098 0.04989608 0.049868096 0.0499461 0.050018091 0.050018091
0.049987078 0.049938478 0.049883112 0.049810704 0.049748152 0.049894921
0.050131366 0.049927257 0.049881786 0.0499123 0.049936146 0.050005563
0.049927786 0.049986422 0.050083049 0.050023809 0.049856588 0.049975842
0.050047494 0.050072111 0.050129142 0.050069705 0.050018691 0.049952265
0.049905155 0.049945544 0.050060578 0.050049879 0.049967952 0.050068755
0.050022352 0.050094448 0.049982265 0.050033558 0.050168719 0.049983434
0.050147627 0.050070427 0.049971033 0.050060999 0.05026152 0.050215375
0.050026435 0.0500824 0.049993169 0.050100088 0.050145004 0.050047006
0.050179172 0.050121158 0.050024297 0.050090492 0.050060369 0.049913101
0.049975626 0.050026312 0.050062943 0.050148193 0.050009724 0.050022647
0.04999065 0.049983636 0.049863674 0.050042812 0.050055657 0.049998492
0.049865417 0.049939144 0.050027791 0.049941573 0.050122838 0.049970035
0.04997313 0.050070837 0.050012991 0.049981721 0.049956162 0.050055072
0.050166976 0.050070953 0.050131954 0.050046813 0.050085206 0.050194673
0.050005049 0.05003009 0.050078142 0.05006459 0.05004926 0.049985889
0.050003126 0.050041653 0.04998903 0.050000496 0.050058983 0.049946602
0.050091073 0.050108615 0.050029814 0.050089944 0.049918085 0.050103243
0.049883191 0.049785249 0.050000187 0.049932424 0.049954101 0.04995545
0.049990002 0.049853653 0.049822979 0.049953897 0.050104175 0.050012041
0.049992461 0.04993793 0.04981906 0.049938384 0.049895208 0.04983614
0.049841613 0.049925637 0.049880348 0.049888343 0.04979118 0.049904075
0.049995001 0.049995001 0.049887136 0.049928572 0.049852211 0.049806885
0.049751271 0.049844738 0.050084814 0.049872778 0.049855717 0.049817715
0.049925335 0.050018821 0.049887571 0.049972709 0.050037585 0.050007477
0.049886312 0.04998957 0.050007239 0.050023347 0.050092135 0.050008517
0.050050825 0.049990516 0.049905736 0.049947154 0.050065231 0.050100151
0.04998396 0.050049413 0.050019588 0.050150026 0.050046854 0.050078474
0.050157603 0.049980883 0.050188363 0.050128084 0.050023153 0.050116852
0.050318245 0.050216254 0.050035212 0.050129939 0.050057568 0.050171286
0.050206091 0.050119016 0.050219037 0.050151013 0.050096173 0.050101377
0.05011224 0.049965736 0.050006766 0.050042268 0.050055955 0.050122198
0.049969722 0.049996901 0.049977418 0.049998742 0.049885578 0.050036982
0.04999651 0.049977385 0.049854364 0.049981587 0.050083574 0.049964193
0.05014484 0.049999453 0.050025176 0.050077278 0.050005548 0.05001045
0.049924195 0.050038282 0.050150644 0.050077159 0.050178017 0.050129909
0.050156564 0.050237849 0.050024528 0.050035805 0.050129861 0.050111093
0.050071802 0.049965717 0.050064798 0.050114583 0.049994104 0.050043914
0.050035518 0.049955033 0.050085966 0.050065454 0.050082505 0.050156694
0.049883325 0.05009282 0.049887162 0.049748205 0.050010521 0.049904045
0.049911775 0.049882412 0.049971972 0.049863167 0.049813233 0.049918879
0.050006147 0.049953274 0.049986493 0.049958687 0.049793512 0.049884424
0.049873635 0.04979388 0.049801964 0.049893241 0.049837563 0.049846549
0.049767144 0.04982236 0.049927022 0.049927022 0.04978824 0.049907509
0.049823407 0.049790859 0.049775649 0.0497697 0.049984552 0.049799599
0.049780898 0.049758431 0.04992095 0.049992532 0.049853448 0.04998672
0.049953893 0.049974468 0.04992149 0.049986888 0.049929373 0.049946893
0.050063372 0.049979821 0.050080925 0.05002806 0.049930096 0.049985904
0.050055437 0.050081044 0.050018076 0.050036773 0.050055534 0.05021023
0.050114427 0.0501297 0.050145119 0.050003715 0.050219584 0.050191823
0.050099902 0.050172012 0.050340664 0.050222788 0.050078273 0.05019369
0.05013315 0.05024264 0.050277356 0.050203104 0.050252009 0.050192006
0.050182037 0.050112158 0.050139062 0.050029252 0.050063375 0.050055854
0.050054573 0.050105955 0.049962491 0.049959999 0.04995928 0.050022952
0.049902461 0.050034169 0.049931455 0.049970578 0.04990242 0.050002176
0.050117515 0.050001405 0.050151903 0.050028522 0.050067283 0.050122168
0.050030198 0.050060067 0.04993739 0.050000794 0.050151583 0.050122265
0.050209016 0.050199207 0.050245523 0.050278738 0.050069503 0.050064009
0.050161898 0.050136037 0.050089303 0.049990389 0.050116464 0.05018102
0.050015341 0.050083045 0.050019637 0.04997728 0.050073594 0.050033469
0.050111517 0.050182972 0.049879652 0.050054871 0.04990169 0.049762759
0.050003793 0.049895596 0.049875442 0.049782138 0.049921647 0.04987058
0.049812477 0.049877267 0.049915671 0.049867388 0.049942996 0.049938615
0.049792148 0.049844626 0.049838386 0.049741738 0.049764469 0.049851868
0.049765863 0.0497717 0.049747154 0.049739283 0.049851004 0.049851004
0.049687486 0.04987739 0.04978985 0.049746875 0.049784638 0.049701095
0.049842641 0.049732827 0.049697943 0.049736917 0.049908336 0.049921524
0.049803168 0.050018609 0.049872611 0.049908366 0.049920425 0.049945381
0.049857918 0.049870394 0.050057091 0.049989704 0.050089158 0.050045066
0.049965195 0.050044581 0.050057195 0.05002654 0.050055604 0.05003592
0.050110687 0.050264552 0.050152004 0.050158951 0.050170459 0.05008034
0.050256588 0.050255071 0.050175551 0.050224017 0.050343879 0.050260734
0.050154507 0.050267711 0.050217964 0.05032111 0.050359741 0.050282296
0.050293151 0.050237063 0.050251007 0.050115012 0.050150003 0.050075028
0.050141048 0.050086405 0.050071266 0.050103713 0.049977262 0.049942851
0.049969245 0.050049178 0.049916446 0.050038435 0.04988851 0.049976069
0.049950566 0.0500126 0.050109629 0.050041273 0.050159048 0.050056376
0.05010144 0.050187018 0.050093595 0.050125688 0.049986161 0.0499711
0.050188031 0.050210927 0.050249841 0.050247461 0.050319083 0.050308876
0.050145961 0.050129533 0.05018888 0.050139785 0.050095145 0.050032072
0.050153978 0.050254233 0.050050434 0.050109033 0.050009225 0.050005525
0.050062276 0.050026976 0.050121527 0.050164793 0.049884334 0.050017819
0.049926624 0.049808204 0.049972914 0.049892783 0.049855925 0.049702674
0.049855966 0.04985607 0.049805373 0.049819406 0.049836535 0.049772192
0.049860321 0.049885042 0.049799524 0.049811725 0.049801651 0.049683854
0.049719464 0.049800482 0.049676452 0.049672924 0.049677305 0.049671106
0.049783017 0.049783017 0.049579751 0.049828317 0.049733624 0.049671087
0.049747311 0.049659166 0.049698189 0.049692232 0.049629077 0.049734164
0.049875226 0.049816925 0.049730171 0.050028939 0.049820855 0.049819976
0.049883559 0.049872711 0.049814254 0.04981323 0.050060723 0.050023708
0.05007131 0.050041303 0.049995966 0.050084136 0.050066125 0.049987227
0.050092485 0.050046239 0.050167009 0.050293561 0.050152879 0.050167233
0.050241765 0.050199494 0.05029992 0.050315835 0.050239541 0.050286546
0.050366864 0.05033496 0.050248232 0.050344262 0.050325297 0.050413739
0.050442364 0.050350659 0.050347563 0.050285194 0.050295204 0.050115038
0.050169151 0.050113 0.050214004 0.050145134 0.050120167 0.050103549
0.049988169 0.049951546 0.050015289 0.050076187 0.049938548 0.050049577
0.04987774 0.049986623 0.049972847 0.050017774 0.050074857 0.050074253
0.050166249 0.05008436 0.050145671 0.050253246 0.050185818 0.050200604
0.05004251 0.04999518 0.05027324 0.050321918 0.05030198 0.050279994
0.050375216 0.050331235 0.050238241 0.050214503 0.050224006 0.050152447
0.050112624 0.050076995 0.05018121 0.050322838 0.05009222 0.050123032
0.050008502 0.050031271 0.050061751 0.050055612 0.050121672 0.050111569
0.049886286 0.050001372 0.049959689 0.049864158 0.049926408 0.049866594
0.049838301 0.049671907 0.049784284 0.049806733 0.049789406 0.049749456
0.049757767 0.049689479 0.049758635 0.049813319 0.049779855 0.049770802
0.049781308 0.049629208 0.049652908 0.04973102 0.049580134 0.049560323
0.049552582 0.049604073 0.049708076 0.049708076 0.049458805 0.049744308
0.049643464 0.049571529 0.049653947 0.049633823 0.049586043 0.049673475
0.049573682 0.049727362 0.049809188 0.049698021 0.049655251 0.049988087
0.049798142 0.049733605 0.04982584 0.049798422 0.049778849 0.049781546
0.050047539 0.050050423 0.05004248 0.050034579 0.050014991 0.050085921
0.050069153 0.049990702 0.050133348 0.05006903 0.050214145 0.050287794
0.050135083 0.050179731 0.050335992 0.050326623 0.050341997 0.050377723
0.050300833 0.050373476 0.050440479 0.050430562 0.050341904 0.050419539
0.050458428 0.050526895 0.050523464 0.050415363 0.050414287 0.050329503
0.050334752 0.050131187 0.050216433 0.050174002 0.050259028 0.050231025
0.050193202 0.050097387 0.049983174 0.049976282 0.05008636 0.050105974
0.049974691 0.050072465 0.049898118 0.049994919 0.049970254 0.050013822
0.050044104 0.050103527 0.050173588 0.050113779 0.050205059 0.050316062
0.050293311 0.050273035 0.050089002 0.050094698 0.050406124 0.050428301
0.050353929 0.050315779 0.050426953 0.050360207 0.050323844 0.050292253
0.0502716 0.050204217 0.050165951 0.050133102 0.050207127 0.050364308
0.05013217 0.050131399 0.050025482 0.050063934 0.050084643 0.050107807
0.050106697 0.050036184 0.049888797 0.050013125 0.049996428 0.049912781
0.04987346 0.049803093 0.049805008 0.049677815 0.049718793 0.04972472
0.04976061 0.049677156 0.049671497 0.049628269 0.049657505 0.049731418
0.04971784 0.049708374 0.04976989 0.049575485 0.049557 0.049633496
0.049494252 0.049451869 0.049405824 0.049515203 0.049611051 0.049611051
0.049328588 0.049617339 0.049518816 0.049467001 0.049517408 0.04959527
0.049509522 0.049656484 0.049522564 0.049702525 0.049700122 0.049566537
0.049601596 0.049905047 0.049782563 0.049673788 0.049760148 0.049738217
0.049721356 0.049763631 0.050004002 0.050041471 0.05001805 0.050039556
0.050028823 0.050059866 0.0500612 0.050027248 0.050183762 0.050102994
0.050241698 0.050258029 0.050132778 0.05021799 0.050423414 0.050421838
0.05038118 0.050451633 0.050381511 0.05048443 0.050557308 0.050523438
0.05042642 0.050499238 0.050603095 0.05065785 0.05061407 0.050492477
0.050494205 0.050371055 0.050386447 0.05018143 0.050297625 0.050269
0.050275017 0.050334003 0.050270263 0.050087258 0.049965225 0.050002143
0.050166413 0.050141804 0.050016794 0.050114229 0.049939454 0.050001774
0.049964644 0.049994834 0.05003928 0.050144896 0.050194032 0.050145645
0.050274596 0.050382257 0.050405215 0.050340746 0.050138082 0.05025221
0.050559033 0.050512604 0.050407376 0.050375935 0.050480004 0.050408382
0.050397448 0.050353322 0.050335299 0.050299767 0.050253332 0.050212566
0.050244663 0.050365895 0.050164267 0.05014623 0.050064687 0.050112896
0.050131168 0.050159007 0.050071355 0.049959943 0.049905654 0.05003871
0.050024245 0.049936008 0.049810693 0.049723018 0.049753778 0.049676057
0.049665485 0.049621299 0.049709085 0.04960585 0.049582768 0.049573466
0.049555108 0.049646836 0.049627889 0.04961076 0.049732734 0.049504299
0.049441885 0.049501806 0.049420644 0.049374152 0.049263902 0.049392376
0.049495012 0.049495012 0.049207292 0.049464386 0.04937318 0.049376234
0.049364239 0.049514696 0.049440745 0.049620111 0.049463946 0.0496465
0.049549256 0.049422551 0.049564864 0.049807705 0.049754739 0.049651425
0.049685504 0.049678583 0.049621057 0.04974499 0.049939286 0.049984138
0.050001998 0.050056774 0.050049022 0.050034013 0.050050575 0.050069015
0.050235391 0.050142463 0.050246738 0.05022832 0.050174877 0.050285719
0.050492011 0.050469402 0.050423317 0.05054326 0.050491773 0.050608441
0.050690271 0.050604708 0.050505355 0.050591063 0.050728958 0.050795961
0.050724369 0.050590616 0.050586764 0.05042458 0.050451562 0.050265662
0.050407521 0.050387003 0.050283 0.050436005 0.050340328 0.050081234
0.049945299 0.050026126 0.050254505 0.05017991 0.050047904 0.050166033
0.049974531 0.050012227 0.049980748 0.049966767 0.050051302 0.050199911
0.050249178 0.050179329 0.050340876 0.050461981 0.050519988 0.050408747
0.050218347 0.050425 0.050690461 0.050577287 0.050477743 0.050464321
0.050521977 0.050479986 0.050466046 0.050415248 0.050420962 0.050414268
0.050343979 0.050307155 0.050292443 0.050340634 0.050202459 0.05018102
0.050109845 0.050167158 0.050180554 0.050196618 0.050030459 0.049909197
0.049937442 0.050047107 0.050024491 0.049910191 0.049733676 0.049662996
0.049688853 0.049626168 0.049617328 0.049521044 0.049633544 0.049539089
0.049501002 0.049501035 0.049447656 0.049565945 0.049534149 0.049461368
0.049635608 0.049395382 0.049318738 0.049343564 0.04934093 0.049344614
0.049138885 0.049248248 0.049386006 0.049386006 0.049122088 0.049334474
0.049226899 0.049300194 0.049216274 0.04938009 0.049351487 0.049546085
0.049395204 0.049550954 0.049373448 0.049277637 0.049525388 0.049714856
0.049698867 0.049661268 0.049596354 0.049595606 0.049487155 0.049716573
0.049870983 0.049888305 0.049987603 0.050074484 0.050085396 0.050030556
0.050046586 0.050081838 0.050260562 0.050179131 0.050229136 0.050222859
0.05027952 0.050372582 0.050542347 0.050477069 0.050479949 0.050644081
0.050607581 0.05073598 0.050816767 0.050681587 0.050592396 0.05069834
0.050820295 0.050930295 0.050844874 0.050707705 0.05069517 0.050510399
0.050518721 0.050357521 0.050533112 0.050496001 0.050302047 0.050526042
0.050408531 0.050078422 0.049926486 0.050055306 0.05035682 0.050215371
0.050040219 0.050198872 0.049972326 0.050023578 0.050036382 0.049937468
0.05005499 0.050252408 0.050330479 0.050219785 0.050402287 0.050555233
0.050636433 0.050489686 0.050343294 0.05056835 0.050771747 0.050644178
0.050581846 0.050569031 0.050539907 0.050565608 0.050538532 0.050493255
0.050541721 0.050516505 0.05040985 0.050393738 0.050338358 0.050324507
0.050272204 0.05023481 0.050128978 0.050203238 0.050201032 0.050219756
0.050007623 0.049898498 0.049973581 0.050006006 0.049990114 0.04983037
0.049640805 0.049638949 0.049615327 0.049518682 0.049552139 0.049439032
0.049545389 0.04949408 0.049435377 0.049397264 0.049345464 0.049483996
0.049437404 0.049260613 0.049477644 0.049243715 0.049180482 0.049191482
0.049232665 0.049354553 0.049031854 0.049117006 0.049314063 0.049314063
0.049083006 0.049275644 0.04910107 0.049221069 0.049096826 0.049201086
0.049239561 0.049423221 0.049310461 0.049417552 0.049202058 0.049167044
0.049478922 0.049636032 0.049604159 0.049680516 0.049487028 0.049477372
0.049351092 0.049677566 0.049817864 0.049779333 0.049969271 0.050086252
0.050142087 0.050051536 0.050064687 0.050055414 0.050231934 0.050199348
0.050186869 0.05024755 0.050446127 0.050461456 0.050584625 0.050474975
0.050566025 0.050740208 0.050691705 0.050859567 0.05093354 0.050774127
0.050694589 0.050821763 0.050885797 0.051064592 0.050965372 0.050828941
0.050815616 0.050628424 0.050592002 0.050431017 0.050648209 0.050562136
0.050336558 0.050599378 0.050482262 0.050071079 0.049914077 0.050095089
0.050452642 0.050240077 0.049976885 0.050178736 0.049920008 0.050019208
0.050121635 0.049912926 0.050038323 0.050274719 0.050397325 0.050272122
0.050463915 0.05064908 0.050746299 0.050588306 0.050497767 0.05065804
0.050802976 0.050740935 0.050722864 0.050677218 0.050540742 0.050649051
0.050609529 0.050583452 0.050701376 0.050596017 0.050440013 0.050457466
0.050371811 0.050352138 0.050385114 0.050285488 0.050097417 0.05020592
0.05017117 0.050233334 0.050014697 0.049920056 0.049995657 0.049904913
0.049931925 0.049713179 0.049545739 0.049628433 0.04954366 0.049390793
0.04945641 0.049382098 0.04946376 0.049497209 0.049387861 0.049273085
0.049270052 0.049383007 0.049317017 0.049038362 0.049289186 0.049072523
0.049005784 0.049090158 0.049098011 0.049359035 0.048943784 0.049030129
0.049284257 0.049284257 0.049075007 0.049291 0.04900704 0.04911704
0.049015328 0.049005359 0.049127098 0.04925691 0.049211305 0.049260337
0.049061093 0.049124368 0.049437277 0.04956989 0.049467288 0.049675629
0.049356859 0.04934055 0.049258742 0.049632769 0.04979258 0.049687494
0.049944684 0.050090775 0.050209526 0.050079502 0.050111812 0.050003994
0.050150584 0.050192408 0.05012241 0.050302424 0.05065237 0.050534956
0.050636884 0.050507884 0.050686505 0.050821777 0.050733302 0.05098173
0.051045407 0.050894797 0.050815962 0.050959378 0.050955664 0.051202931
0.051080182 0.050945062 0.050933115 0.050761126 0.050688472 0.050488085
0.050704524 0.050581116 0.05038457 0.050647944 0.050544079 0.05005369
0.049924575 0.050140306 0.050487142 0.050240688 0.049859714 0.050082702
0.049839638 0.049964137 0.050191049 0.049867321 0.050017022 0.05024815
0.050406113 0.050332014 0.050527006 0.050727192 0.050837245 0.050689742
0.050640251 0.050701603 0.05081401 0.05087908 0.050895959 0.050790351
0.050563779 0.050721828 0.050680306 0.050665736 0.050873153 0.050660413
0.05045281 0.050503131 0.05040865 0.050438676 0.050524618 0.050313924
0.050030433 0.050181516 0.05009874 0.050230049 0.050039843 0.049948279
0.049990654 0.049764261 0.049872868 0.049599275 0.049472112 0.049602795
0.0494891 0.049303122 0.049348935 0.0493435 0.049389321 0.04954645
0.04935943 0.049159642 0.049235769 0.049245663 0.049161125 0.048836377
0.049114667 0.048934136 0.048795767 0.049068458 0.048972148 0.049302999
0.048870619 0.048995171 0.049269389 0.049269389 0.04905504 0.049318541
0.048955008 0.048988122 0.048963487 0.048832294 0.04904164 0.049074035
0.049108252 0.049103796 0.048969109 0.049147215 0.049401458 0.049515065
0.049310956 0.049623191 0.049216464 0.049220629 0.049247272 0.049593017
0.049789842 0.049636409 0.049910612 0.050093349 0.050261747 0.050088275
0.050177965 0.049960308 0.050057437 0.050158828 0.050066538 0.050386019
0.050848443 0.050586399 0.050713688 0.050609823 0.050832234 0.050889947
0.050772645 0.051112726 0.051149521 0.051035576 0.05095797 0.051116075
0.051060002 0.05133928 0.051190633 0.051068518 0.051016558 0.050902698
0.05082079 0.050555635 0.050665118 0.050565254 0.050450113 0.050657284
0.05055825 0.050028682 0.049970452 0.050162528 0.050397877 0.05019699
0.049720921 0.049917884 0.049763255 0.049842261 0.050185177 0.04978
0.049997084 0.050200071 0.050333627 0.050391741 0.050568894 0.050777566
0.050882537 0.050779443 0.050735071 0.050741035 0.050845005 0.051052041
0.051080298 0.050921764 0.050655156 0.050796978 0.05076487 0.050727528
0.050999977 0.050728843 0.050473809 0.050556842 0.050486609 0.050561946
0.050641757 0.050322283 0.049984582 0.050145756 0.050019927 0.050195049
0.050058801 0.049953774 0.04995333 0.049635731 0.049819782 0.049533047
0.049452733 0.049549073 0.049464189 0.049299773 0.049269348 0.049309775
0.04931597 0.049599014 0.049341898 0.049089588 0.049227912 0.049077101
0.04898899 0.048679657 0.048974667 0.048872963 0.048596371 0.049119473
0.048899718 0.049147218 0.048803374 0.048985008 0.04921823 0.04921823
0.048988044 0.049258981 0.048943378 0.048861183 0.048910622 0.048712935
0.048990365 0.048923183 0.049033541 0.048972473 0.048927717 0.049186122
0.049340911 0.049456563 0.049174007 0.04952655 0.049092129 0.049150571
0.049333334 0.049571261 0.049783852 0.049627949 0.049869552 0.050089039
0.050260495 0.050062589 0.050230347 0.049951706 0.050014876 0.050112113
0.050071597 0.050496873 0.05097552 0.050627258 0.05081616 0.050782904
0.050980698 0.050962485 0.050874732 0.051258739 0.051249534 0.051179033
0.051119015 0.051291771 0.051205479 0.051452477 0.051302098 0.051211759
0.05106511 0.0510314 0.050986018 0.050648525 0.050552782 0.050532479
0.050532825 0.050614804 0.050501324 0.050009198 0.050039541 0.050119583
0.050164036 0.050085165 0.049596086 0.049714297 0.049692005 0.049671348
0.050051972 0.049655426 0.049945451 0.050165284 0.050222311 0.050437935
0.050565526 0.050794508 0.050867561 0.050845575 0.050788511 0.050812185
0.050934106 0.051224995 0.05124202 0.051072009 0.050837576 0.050902676
0.050883513 0.050779685 0.051029 0.050814342 0.050529949 0.050639834
0.050631888 0.050676648 0.050683122 0.05033388 0.050021973 0.050116863
0.049983315 0.050126385 0.050055735 0.049926382 0.049886115 0.04957632
0.049765807 0.049528401 0.049499851 0.0494789 0.049466237 0.049378011
0.049243875 0.04927437 0.049240336 0.049584717 0.049319342 0.049067844
0.049209826 0.048918344 0.048833776 0.048567355 0.048859671 0.048889212
0.048483506 0.049190313 0.048897348 0.04890975 0.048732176 0.048967876
0.049087021 0.049087021 0.048867006 0.049051858 0.048951462 0.048765179
0.048825078 0.048648834 0.04895331 0.048847213 0.049019318 0.048884679
0.048918501 0.049179841 0.049213346 0.049372815 0.049095359 0.049407307
0.049019657 0.049143493 0.049489494 0.04956869 0.049737707 0.049654018
0.049832262 0.050064407 0.050178815 0.050009318 0.050243497 0.049983364
0.050067149 0.050089106 0.050181389 0.050621718 0.0510001 0.050687507
0.05091992 0.050984871 0.051114801 0.051065225 0.051075842 0.051410068
0.051357001 0.051315296 0.051291678 0.051473584 0.051374622 0.051528111
0.051420253 0.051374864 0.051110074 0.051131867 0.051148579 0.050780248
0.050449543 0.050506353 0.050610147 0.050520334 0.050387818 0.049998701
0.050087973 0.049979113 0.049830295 0.049887463 0.049499922 0.049500577
0.049590193 0.049495082 0.049803078 0.049510054 0.049841732 0.050141554
0.050147139 0.050462708 0.050518658 0.050782315 0.050801452 0.050890122