# vtk DataFile Version 3.0
axinsert(project(???,0,L2),2)
ASCII
DATASET STRUCTURED_POINTS
DIMENSIONS 256 1 1
ORIGIN 0 0 0
SPACING 1 1 1
POINT_DATA 256
SCALARS nrrd45302 float
LOOKUP_TABLE default
0 0 0 0 0 0 0 0 0 0 0 0 0 0 0 0 0 0 0 0 0 0 0 0 0 0 0 0 0 2.4494898e-06
1.9261361e-05 0.00013557654 0.00095388468 0.006340194 0.03909668 0.21575129
0.9767909 2.2958212 1.4350961 1.5370281 1.3550715 0.9433583 1.1588963
1.5637779 1.8222419 1.7558506 1.522009 1.8023713 1.7567294 1.6499591
2.0461524 2.4798541 2.09641 1.6230553 1.2936627 1.1038312 0.99971497
0.93842739 0.89799339 0.86861342 0.84547049 0.82598388 0.80882728 0.7935977
0.77952969 0.76646638 0.75423867 0.74271303 0.73177803 0.72134548
0.71135551 0.70177031 0.69264638 0.68391412 0.67545915 0.66748095
0.65984178 0.65250748 0.64542001 0.63842851 0.63140947 0.62475115
0.61884153 0.61354721 0.60898018 0.60474765 0.60045832 0.59599543
0.59099358 0.58609062 0.58154875 0.57760739 0.57437676 0.57165968
0.56919825 0.5664044 0.56215912 0.55672306 0.54993045 0.541529 0.53382349
0.52972722 0.5274269 0.52889842 0.5334444 0.53858978 0.54153997 0.53876674
0.53349298 0.52827209 0.53337586 0.53899145 0.53840357 0.52679348
0.50089633 0.46749967 0.4456501 0.43685532 0.48696417 0.58810961 0.65067172
0.67723358 0.69713241 0.70783448 0.69516993 0.65822035 0.62435162
0.56337041 0.56337041 0.53233659 0.50744545 0.5025202 0.51742536 0.54430544
0.58376598 0.62267876 0.63713741 0.59925389 0.49262932 0.29918727 0.1910682
0.18230417 0.19666262 0.22500059 0.25994352 0.30587617 0.36173132
0.40057713 0.41134214 0.40356117 0.3826071 0.35590109 0.33565208 0.32973492
0.33755067 0.36470932 0.40316585 0.44048119 0.46913952 0.48402768
0.49016887 0.48953897 0.48385879 0.47404417 0.46257111 0.45435637
0.45525369 0.46792901 0.49197921 0.52567983 0.56882435 0.62034112
0.67608172 0.73066199 0.77908975 0.81918144 0.8477546 0.86651164 0.87647736
0.87463963 0.86149615 0.83795029 0.80622077 0.76975971 0.7323243 0.69659621
0.66293573 0.63033664 0.59736139 0.56361055 0.52714735 0.48771897
0.44596541 0.40046912 0.34897494 0.29145345 0.22192357 0.13521308
0.054438658 0.0098218881 0.00098603498 8.8988767e-05 7.2111029e-06 0 0 0 0
0 0 0 0 0 0 0 0 0 0 0 0 0 0 0 0 0 0 0 0 0 0 0 0 0 0 0 0 0 0 0 0 0 0 0 0 0 0
0 0 0 0 0 0 0 0 0 0 0
