# vtk DataFile Version 3.0
axinsert(project(permute(???,2,0,1),0,L2),2)
ASCII
DATASET STRUCTURED_POINTS
DIMENSIONS 128 256 1
ORIGIN 0 0 0
SPACING 1 1 1
POINT_DATA 32768
SCALARS nrrd90284 float
LOOKUP_TABLE default
0.049998999 0.049978022 0.0499941 0.050033111 0.050011069 0.049950052
0.049980119 0.049980052 0.04995431 0.050017323 0.050063081 0.050041001
0.049993001 0.049983025 0.049974013 0.049985245 0.049992051 0.049989242
0.049998078 0.050004181 0.04999201 0.050024416 0.050039068 0.050008006
0.04997405 0.049968388 0.050026145 0.050052226 0.050004013 0.049968045
0.050017107 0.050039999 0.050029423 0.049987007 0.049997561 0.049978018
0.049963031 0.049976423 0.049995001 0.049978223 0.050002277 0.050020151
0.050021298 0.050010026 0.049977072 0.049984049 0.050007034 0.050014067
0.049986184 0.04997135 0.049986001 0.049990542 0.050016429 0.050033048
0.049943034 0.050000429 0.050019003 0.050034847 0.049966998 0.049958989
0.050001189 0.050056599 0.050087102 0.050026018 0.049994044 0.04995307
0.050003 0.050003093 0.049974009 0.050012551 0.050036084 0.050032232
0.049987029 0.049993116 0.050055012 0.050061505 0.049936444 0.049982067
0.049989119 0.049971059 0.049972318 0.049959477 0.05003833 0.050019022
0.050059024 0.049990781 0.049968079 0.050021864 0.049949065 0.049969085
0.050008144 0.049974129 0.049984001 0.050016019 0.049996004 0.050057027
0.050037406 0.049999021 0.049981121 0.050017118 0.050035529 0.049964029
0.05003636 0.049965616 0.049956005 0.05001666 0.050015047 0.05002629
0.049941506 0.049969047 0.049986005 0.049966093 0.050004449 0.049993213
0.04998545 0.050032008 0.050013151 0.050030001 0.049971014 0.049989115
0.050067015 0.050032072 0.049978022 0.049977001 0.050005015 0.049981065
0.050037246 0.050037246 0.050015356 0.049965002 0.050046057 0.050024003
0.049962159 0.050004274 0.049966063 0.049956147 0.049930003 0.049939003
0.050078209 0.050075196 0.049954969 0.049940523 0.049984775 0.050043259
0.049961135 0.049942777 0.050006717 0.050086878 0.049998038 0.049929462
0.050052814 0.049993671 0.049923103 0.049992077 0.050028097 0.050035927
0.050030425 0.050002355 0.050085548 0.050202765 0.050056141 0.050011773
0.049912143 0.04992329 0.049921297 0.049979862 0.04993102 0.049909942
0.050027192 0.049999148 0.050072707 0.050062984 0.050019335 0.049961586
0.050009239 0.050121352 0.049986999 0.049909048 0.049877133 0.049962465
0.050023053 0.050072562 0.049967069 0.049934138 0.05005515 0.050054204
0.049975347 0.049920034 0.050078038 0.050099067 0.050136261 0.050056029
0.049983419 0.050050046 0.050070085 0.049947135 0.050075024 0.05001428
0.049980022 0.050076324 0.049930051 0.049944028 0.050137009 0.050066072
0.049903002 0.050087187 0.049896523 0.049993999 0.049977973 0.049951263
0.050134685 0.049940631 0.050016344 0.049961109 0.050040167 0.050098788
0.049930762 0.049984712 0.049967378 0.04991328 0.050008204 0.050056495
0.049959555 0.050078176 0.050182488 0.049984999 0.049920425 0.050112147
0.050030727 0.0498695 0.050096881 0.050006587 0.049901847 0.050050557
0.050159983 0.050004203 0.049855284 0.049907029 0.049980875 0.049900349
0.049978863 0.049981475 0.049951911 0.050011769 0.049988292 0.05004622
0.049970228 0.04996651 0.050121002 0.050027508 0.049922999 0.050002139
0.050021011 0.049930103 0.050021019 0.050021019 0.049993176 0.050016019
0.050044104 0.050008018 0.049927108 0.050066166 0.04996926 0.049899288
0.05002857 0.049925081 0.049943376 0.049972571 0.049909733 0.049955975
0.050015498 0.050099887 0.049930193 0.049905214 0.050007366 0.050111316
0.050044436 0.049864002 0.049998309 0.050008506 0.049908943 0.050095797
0.049969431 0.049832873 0.05006849 0.050118148 0.050095621 0.050207246
0.050007872 0.050045814 0.049948931 0.049891308 0.049989659 0.050029296
0.04987235 0.049905661 0.050045695 0.049929325 0.050050169 0.050075796
0.050081573 0.050035626 0.050081398 0.050184559 0.05001425 0.049907517
0.049868137 0.04997813 0.050044037 0.050000999 0.050046302 0.049938008
0.050003286 0.049992029 0.050048497 0.050050024 0.050169028 0.050090302
0.050026 0.050014023 0.050016019 0.050170254 0.050064012 0.050003078
0.050222412 0.04997851 0.049894247 0.050044388 0.049931161 0.049966786
0.050095525 0.049978413 0.05000424 0.05017782 0.049875565 0.050020956
0.050050762 0.05004729 0.050110508 0.049916878 0.049908921 0.049954791
0.050120596 0.050157685 0.050005499 0.050017234 0.049987208 0.049986258
0.050003909 0.050004981 0.049935017 0.050017558 0.050231904 0.050008208
0.04995146 0.05008376 0.049958136 0.049905967 0.050111018 0.050158337
0.049914896 0.050038122 0.050112847 0.049971096 0.04996622 0.049867753
0.049941603 0.049831066 0.049928371 0.050041389 0.04992358 0.049876548
0.049990322 0.05000576 0.050015323 0.049949981 0.050028201 0.049974147
0.049924131 0.050023079 0.04999112 0.049911998 0.049943078 0.049943078
0.049974013 0.050012037 0.049974047 0.049978092 0.049903288 0.049952522
0.049972393 0.049885634 0.050027918 0.049987283 0.049880799 0.049864464
0.049869567 0.049990766 0.050023321 0.050088778 0.049898133 0.049881272
0.050006036 0.050081093 0.050077166 0.049935326 0.049953211 0.050045244
0.049903177 0.050100289 0.04992573 0.049738619 0.050085932 0.050134383
0.050076418 0.050079219 0.049940117 0.050097942 0.050042443 0.049954034
0.050070431 0.050044551 0.049879432 0.04986728 0.050077457 0.049945414
0.050024431 0.050117563 0.050069995 0.05013711 0.050191816 0.050146963
0.05001739 0.049951795 0.049977608 0.050026067 0.050123207 0.049940027
0.050040275 0.049937002 0.049966406 0.050022006 0.050073057 0.050128061
0.050198007 0.050155163 0.049986064 0.050015219 0.050074197 0.050158512
0.04999803 0.050115127 0.050235521 0.049967054 0.049967874 0.050010487
0.05000747 0.050021261 0.050074961 0.049975108 0.050047673 0.050151564
0.049944326 0.050035033 0.050060913 0.050090667 0.050038178 0.049995679
0.049968358 0.049961545 0.050041571 0.05018156 0.050044246 0.049945816
0.050072465 0.050085362 0.049994908 0.050004967 0.050011039 0.050070982
0.050163668 0.0500312 0.050000228 0.049998332 0.04992177 0.049958725
0.050111074 0.050180931 0.049973227 0.049994402 0.049903627 0.049961656
0.05006526 0.049869742 0.049894881 0.04978307 0.049895626 0.050025761
0.04983006 0.049778495 0.05003133 0.050023515 0.050017603 0.049926545
0.049940422 0.049980003 0.049929608 0.049958009 0.049941171 0.049902089
0.049939081 0.049939081 0.04996907 0.049973018 0.049909264 0.049874146
0.049833301 0.049836908 0.049972404 0.049967349 0.049912058 0.049977176
0.049891967 0.049785886 0.049848396 0.049997807 0.050009865 0.050034236
0.049885716 0.049909104 0.050034702 0.050084453 0.050033592 0.049968261
0.049906727 0.050015446 0.049920686 0.05001891 0.0499021 0.049818181
0.050080348 0.050096609 0.050037019 0.049966689 0.049910408 0.050158892
0.050083395 0.050049055 0.050101276 0.050046328 0.049982466 0.049831357
0.05014367 0.05002464 0.050041247 0.050207984 0.050044805 0.050171316
0.050258417 0.050070908 0.050060134 0.050029024 0.050077472 0.050079256
0.05017975 0.049982045 0.050002176 0.049924131 0.04998925 0.050151002
0.050082024 0.050122023 0.050217006 0.050209146 0.050040055 0.050083894
0.050093714 0.050091017 0.049943127 0.050195701 0.050168362 0.050046142
0.050062321 0.049960732 0.050080098 0.050051421 0.050083261 0.050065745
0.050096173 0.050106596 0.050063033 0.050077349 0.050030459 0.050075497
0.049996872 0.050057258 0.050077453 0.05000221 0.049916174 0.050146833
0.050042484 0.049944509 0.050141774 0.050122552 0.050059076 0.050105568
0.050148517 0.050139807 0.050048701 0.05005309 0.050032113 0.0499405
0.049914591 0.04995795 0.050042931 0.05010191 0.05000994 0.049919203
0.049760628 0.049947895 0.0500587 0.049927063 0.049877111 0.049816757
0.049888458 0.049864609 0.04973213 0.049738422 0.050012812 0.050062723
0.050021671 0.049912561 0.049827483 0.050005019 0.049950652 0.049887069
0.049884181 0.049866006 0.049950033 0.049950033 0.04994639 0.049909011
0.049848285 0.049745295 0.049763974 0.0497941 0.049931627 0.050046246
0.049749374 0.049888447 0.049895484 0.049752261 0.049853928 0.049975876
0.049973872 0.049977522 0.04990717 0.049964625 0.050060526 0.050092418
0.049941149 0.049937706 0.04988214 0.049918555 0.049959607 0.049957704
0.049872924 0.049968392 0.050066989 0.050047465 0.04997737 0.04997009
0.04992919 0.050172135 0.050091647 0.050085433 0.050113186 0.050042782
0.050138567 0.04986582 0.0502152 0.050130837 0.050088525 0.050243363
0.050061062 0.050147638 0.050277255 0.050061803 0.050148915 0.050126057
0.050133463 0.050149392 0.050204385 0.050103877 0.049963128 0.049955014
0.05005103 0.050264105 0.050102025 0.050121017 0.050278056 0.050214119
0.050162017 0.050217226 0.050093018 0.050008506 0.049932364 0.050219651
0.050064225 0.050162759 0.050114147 0.049980424 0.050126243 0.050038945
0.050121836 0.050182778 0.050155137 0.050124034 0.050196663 0.050133869
0.050018672 0.050049022 0.050022036 0.050133757 0.050161831 0.050031897
0.04987843 0.050106592 0.050009169 0.050063733 0.050160795 0.05011645
0.050131027 0.050217219 0.050238181 0.050143808 0.049966838 0.050036196
0.050055865 0.049947731 0.049933247 0.049959205 0.049943101 0.050001077
0.049936987 0.049884088 0.049742766 0.049890779 0.049983464 0.049917679
0.04985667 0.049905647 0.049875095 0.049701046 0.049699396 0.049737751
0.049934573 0.050005723 0.049984708 0.049898829 0.04973942 0.050021365
0.049969383 0.049839348 0.049838092 0.04981808 0.049907014 0.049907014
0.049863759 0.049801245 0.049802676 0.049664527 0.049702421 0.049759425
0.049853016 0.050071955 0.049603898 0.049787473 0.04985866 0.049762305
0.049863532 0.049953863 0.049903534 0.049923431 0.049926136 0.049963199
0.050047133 0.050059605 0.049870942 0.049925361 0.049878106 0.049811579
0.049973346 0.049983934 0.049864355 0.050060134 0.050036073 0.049958229
0.049942192 0.050079796 0.049996737 0.050146453 0.0500855 0.050021097
0.050158318 0.050059073 0.050256684 0.049952142 0.050263301 0.050259713
0.050141204 0.050177753 0.050131094 0.05013537 0.050283629 0.050149508
0.050232526 0.050245974 0.050140444 0.050232504 0.050232839 0.050276261
0.049950123 0.050018795 0.050174057 0.050290406 0.050121024 0.050169248
0.05037412 0.050179008 0.050289005 0.050359376 0.050137613 0.049959999
0.049960557 0.050170392 0.05001412 0.050266545 0.050142713 0.050111435
0.050145842 0.050011907 0.050172687 0.050285798 0.050212905 0.050207205
0.050280564 0.050185621 0.050111622 0.050051112 0.050090883 0.050233185
0.050227534 0.050052725 0.049941707 0.050076589 0.049989503 0.05022065
0.050127782 0.050120533 0.050141964 0.050264776 0.050216123 0.050096765
0.049924958 0.049953919 0.050074555 0.050030869 0.049999498 0.049936965
0.04982499 0.049950901 0.049769353 0.049892657 0.049811836 0.049814235
0.049931567 0.049807176 0.049791977 0.049945269 0.049831599 0.049646456
0.049717598 0.049761288 0.049829643 0.049827948 0.049893849 0.049864314
0.04972038 0.050009154 0.049939141 0.049791638 0.049788028 0.0498081
0.049819104 0.049819104 0.049709618 0.049668625 0.049783379 0.049677767
0.049616776 0.049671825 0.0497691 0.050054021 0.049507562 0.049695596
0.049812552 0.049809765 0.049826182 0.049925242 0.049794134 0.049852584
0.049911942 0.049880028 0.050004005 0.050022274 0.049840756 0.049933556
0.0498905 0.049751751 0.049942158 0.05005737 0.049928468 0.050031543
0.049997017 0.049853954 0.049974039 0.050206248 0.050082091 0.050122958
0.050088573 0.049874391 0.050236039 0.050105173 0.050253127 0.050042726
0.050287705 0.050399687 0.050199505 0.050086163 0.050224084 0.050160691
0.050280001 0.050302625 0.050250098 0.050404642 0.050137684 0.050251678
0.05029811 0.050443791 0.050010052 0.05012868 0.050306644 0.050228436
0.050152283 0.050193373 0.050462261 0.050130144 0.050331 0.050448105
0.050218061 0.049990028 0.050001293 0.050090175 0.050078023 0.050338082
0.05019727 0.050267328 0.050164685 0.050032042 0.050206959 0.050363261
0.050267708 0.050285239 0.050303958 0.050231431 0.050311927 0.050069328
0.050155811 0.050311677 0.050264712 0.050077766 0.050057173 0.050028205
0.050038669 0.050314147 0.050073285 0.05014848 0.05010343 0.050239656
0.050118487 0.050030369 0.049915578 0.04986072 0.050043132 0.050130825
0.050108012 0.049856558 0.049678393 0.049967971 0.049597654 0.049861629
0.049919423 0.04978314 0.049883448 0.049694635 0.049750883 0.049887657
0.049755991 0.049698185 0.049767114 0.049741875 0.049697291 0.049615756
0.04981418 0.049801592 0.049722448 0.04994715 0.049886052 0.049761593
0.049702123 0.049857009 0.049707539 0.049707539 0.049551103 0.049580757
0.049756624 0.049757157 0.049526203 0.049565762 0.049704034 0.049988542
0.049469013 0.049605411 0.049781106 0.049896557 0.049706221 0.049844392
0.049685653 0.049773939 0.049865145 0.049776606 0.049958523 0.050026231
0.049822524 0.049883887 0.049925279 0.049767826 0.049905837 0.050086409
0.050053809 0.049904324 0.050001055 0.049852792 0.05007299 0.050270073
0.050136365 0.050126426 0.050093103 0.049766697 0.050284732 0.050183129
0.050121866 0.050094262 0.050309412 0.050527208 0.050291371 0.050069075
0.050295476 0.050191503 0.050281901 0.050431617 0.0502211 0.050550431
0.050217319 0.050154019 0.050421003 0.050527092 0.050136115 0.050314274
0.050278112 0.050159089 0.050185256 0.0501341 0.050456375 0.0500478
0.050286006 0.050454415 0.050281152 0.050069895 0.050030999 0.050053488
0.050213017 0.050379016 0.050298002 0.0503635 0.050210189 0.050144132
0.050206073 0.050415907 0.050300669 0.050287303 0.050293814 0.050294302
0.050515495 0.050080243 0.050206341 0.050356615 0.050243899 0.05011915
0.050180435 0.049966387 0.050151292 0.050270088 0.050029848 0.050193213
0.05007536 0.050174914 0.05003443 0.049961168 0.049963061 0.049831606
0.049956042 0.050155818 0.050189648 0.049780361 0.049553677 0.049998198
0.049524002 0.049737476 0.050026245 0.049817964 0.049751207 0.049685407
0.049815599 0.049790911 0.049690306 0.049778875 0.049844131 0.04962327
0.049541317 0.049496252 0.049801033 0.049707055 0.049691822 0.04984026
0.049874127 0.049798179 0.049605962 0.049912002 0.049563207 0.049563207
0.049481075 0.049548663 0.049690042 0.049815882 0.049508054 0.049522299
0.049650025 0.049862105 0.049492564 0.049550172 0.049764737 0.049980026
0.049570475 0.049690012 0.049628139 0.049698658 0.049826246 0.049740955
0.049920727 0.050049756 0.049813442 0.049728632 0.049961146 0.049868878
0.049917378 0.050025202 0.050153367 0.049775403 0.050102819 0.050049346
0.050164472 0.050280001 0.050137285 0.050180055 0.050058447 0.049835015
0.050261594 0.050280999 0.049967043 0.050064448 0.050359275 0.050627124
0.050413009 0.050160073 0.050316799 0.050213009 0.050295576 0.050463013
0.050204035 0.050631102 0.050371513 0.050046191 0.050557561 0.050509937
0.050288856 0.050487567 0.050044339 0.050117131 0.050174832 0.050013009
0.050286233 0.04992881 0.050220028 0.050376683 0.050282892 0.05013638
0.050055359 0.050084732 0.050322145 0.050385412 0.050382432 0.050411768
0.050274275 0.050355118 0.050158512 0.050448246 0.050308414 0.050206084
0.050285004 0.050405037 0.050592449 0.050124001 0.050254993 0.050404247
0.050155457 0.050204013 0.05022059 0.049979012 0.050211385 0.050136104
0.050014812 0.050278343 0.050078958 0.050108686 0.05000101 0.049926583
0.050051935 0.049907651 0.049880702 0.050091203 0.050142422 0.049819216
0.049536999 0.049980719 0.049597103 0.04957376 0.05007039 0.049867436
0.049540594 0.049782172 0.049911156 0.049748413 0.049691327 0.049815722
0.049905386 0.04947681 0.049425114 0.04954822 0.049838625 0.049588267
0.049616862 0.049719043 0.049916729 0.049909033 0.049584866 0.049877007
0.049389262 0.049389262 0.04950045 0.049555745 0.049580678 0.049789239
0.049584124 0.049565032 0.04958342 0.049729101 0.049560003 0.049586855
0.049784344 0.049969763 0.049557038 0.049515184 0.049602468 0.049608391
0.049830969 0.049802214 0.049880959 0.050032385 0.04983858 0.049557049
0.049920153 0.050034605 0.049970031 0.049920194 0.050138485 0.049751651
0.050286803 0.050311107 0.050211035 0.050227225 0.050177358 0.050246123
0.0500171 0.050038934 0.050224937 0.050364722 0.049919214 0.049975734
0.050428342 0.050700068 0.050519526 0.050294023 0.050284475 0.050261274
0.050274756 0.050434601 0.050216958 0.050651096 0.05049495 0.050046358
0.050628424 0.050437458 0.050435591 0.050486006 0.049764886 0.050047114
0.05008591 0.049878124 0.049991034 0.04985315 0.050182998 0.050219722
0.05021441 0.050194662 0.050079614 0.050146189 0.050337292 0.050327882
0.050372321 0.050437715 0.050356578 0.050573777 0.050123181 0.050438639
0.050333291 0.050095771 0.050307143 0.050546084 0.050535098 0.050216399
0.050340023 0.050452106 0.050083037 0.050285224 0.050129104 0.050084032
0.050168585 0.050010376 0.050074 0.050375011 0.05012206 0.050060257
0.049996 0.049957182 0.050110087 0.050049029 0.049885854 0.050018046
0.049966313 0.049962591 0.049661454 0.049916144 0.049767699 0.049475938
0.050003413 0.049849447 0.049386077 0.04990406 0.049894728 0.049789064
0.049770482 0.049773056 0.049871583 0.049444083 0.049434971 0.049729019
0.049868692 0.049485017 0.049523443 0.04962226 0.049944259 0.050016515
0.049671635 0.04971702 0.049242523 0.049242523 0.049524575 0.049605019
0.049485888 0.049668461 0.049665008 0.049622133 0.049504079 0.049695436
0.049634196 0.049725112 0.049797285 0.049861878 0.049696065 0.049425013
0.049548 0.049487036 0.049862564 0.049882006 0.049863268 0.049956001
0.049938902 0.049489509 0.049768858 0.050184108 0.050028093 0.049840003
0.050035313 0.049845446 0.05045712 0.05040805 0.050223209 0.050141074
0.050326034 0.050267275 0.050039232 0.050224312 0.050255265 0.050426003
0.049994342 0.04994392 0.050453689 0.050738148 0.050571255 0.050376404
0.05025284 0.050339404 0.05021137 0.050410531 0.050297163 0.050593935
0.050514583 0.050146367 0.050592341 0.050375629 0.050528891 0.050273042
0.04964469 0.049924064 0.049921196 0.049790177 0.049713027 0.049875896
0.050169226 0.04998979 0.05012488 0.050267257 0.050092302 0.050168481
0.050263446 0.05021295 0.050240945 0.050420262 0.050455753 0.050655004
0.050165191 0.05041698 0.050393883 0.050050739 0.050350286 0.050665632
0.050451823 0.050305378 0.050474208 0.050454438 0.050108258 0.050283398
0.049980324 0.050175849 0.050127015 0.049947422 0.050245009 0.050387837
0.050217096 0.050039589 0.050014079 0.050043348 0.050107144 0.050136536
0.049979325 0.049993001 0.049806204 0.050061345 0.04986944 0.049880471
0.0499135 0.049499482 0.049863435 0.049739186 0.04940119 0.04998092
0.049742419 0.049865 0.049852028 0.049666028 0.049741164 0.049538501
0.049580205 0.049904056 0.049861293 0.04946002 0.049452011 0.049580008
0.049880393 0.050020613 0.049773823 0.049507082 0.049202021 0.049202021
0.049507465 0.049640998 0.04951578 0.049496394 0.04964301 0.049621224
0.049426079 0.04979435 0.049697146 0.049845301 0.0497762 0.049726054
0.049872164 0.049454041 0.04949202 0.049383029 0.049853239 0.049885217
0.049899545 0.049887039 0.050085761 0.049561158 0.049581006 0.050237425
0.050061002 0.049835309 0.049951084 0.050009761 0.050476115 0.050318908
0.050206393 0.050127663 0.050472409 0.050281473 0.050092526 0.050318118
0.050395206 0.050453458 0.050154392 0.050072212 0.050390176 0.050714355
0.050574709 0.050380148 0.050288789 0.050415382 0.050162509 0.050448399
0.050436724 0.050476573 0.050426804 0.050277911 0.050460406 0.050345678
0.050509542 0.04998612 0.049763244 0.049796265 0.049752269 0.049799465
0.049572717 0.049923029 0.050104771 0.049746454 0.050076086 0.050308969
0.050072089 0.050095003 0.050172798 0.050085742 0.050047517 0.050350498
0.050525766 0.050527934 0.050279994 0.050431833 0.050459992 0.050135896
0.050395798 0.050734695 0.05043469 0.050347742 0.050570045 0.050432462
0.050192125 0.050259795 0.049867775 0.05021235 0.050155424 0.050001662
0.050457031 0.050302889 0.050320145 0.050067283 0.050057009 0.050161045
0.050075527 0.050112154 0.050105289 0.049997061 0.049772225 0.050042219
0.050037008 0.049951497 0.049934551 0.049621038 0.049771633 0.049606733
0.049546964 0.04999527 0.049572676 0.049920194 0.049822781 0.049574286
0.049608357 0.049647003 0.049739953 0.049962316 0.049826786 0.049553193
0.04943943 0.049586557 0.049714155 0.049889065 0.049794078 0.0493531
0.049283098 0.049283098 0.04948942 0.04964155 0.049641609 0.04933903
0.049520001 0.049569912 0.049364116 0.049912348 0.049743999 0.049789008
0.049775634 0.049628191 0.049942303 0.049530238 0.049549796 0.049380053
0.049765233 0.049805753 0.049957026 0.049905524 0.050138574 0.04977975
0.049438383 0.050188392 0.050050005 0.049921595 0.049946487 0.050179996
0.050328564 0.050159566 0.050232515 0.050162725 0.050517697 0.050291419
0.05015938 0.05033274 0.050600387 0.050434012 0.050359342 0.050342876
0.0502817 0.050619707 0.050556026 0.050372504 0.050401729 0.050470266
0.050187699 0.050569128 0.050540317 0.050368793 0.050295267 0.050389122
0.050296251 0.050286032 0.050371598 0.049809009 0.05001878 0.049734503
0.049667537 0.049898811 0.049565416 0.049878038 0.049929142 0.049591076
0.050051156 0.050246011 0.04997915 0.049956109 0.050129309 0.049962781
0.049915485 0.050255384 0.050482426 0.050278373 0.050392192 0.050486643
0.050503038 0.050333209 0.050454367 0.050761349 0.050486866 0.050353464
0.050534137 0.050419819 0.050275359 0.050322875 0.049877636 0.050208516
0.050235551 0.05015571 0.050590169 0.05018932 0.050361019 0.050134256
0.050115034 0.05029301 0.050070681 0.050057046 0.050189417 0.049982224
0.049864229 0.049956672 0.050087024 0.050111137 0.04983845 0.049780846
0.049810663 0.049544051 0.049700249 0.049947657 0.049497131 0.049911976
0.049665533 0.049577117 0.04956609 0.049653176 0.049774371 0.049889691
0.049801011 0.049694389 0.04951841 0.049593661 0.049521282 0.049674194
0.049749572 0.049309 0.049410369 0.049410369 0.049499325 0.049649157
0.049715377 0.049258076 0.049394071 0.049521439 0.049348 0.049894266
0.049746413 0.049604554 0.049755614 0.049624186 0.049853113 0.049554415
0.049763512 0.049513131 0.049655259 0.049717657 0.049946796 0.049974583
0.050024532 0.050032813 0.049452171 0.050085958 0.050018054 0.050061416
0.050021358 0.050306689 0.050163869 0.050060086 0.050289411 0.050163731
0.050488271 0.050250351 0.050288148 0.050319396 0.050727297 0.050411291
0.050588455 0.050619509 0.050238431 0.050503772 0.050539657 0.050434772
0.05054827 0.050496668 0.050316907 0.050704729 0.050544426 0.050300803
0.050211582 0.050440844 0.050177 0.050149553 0.050174627 0.049829781
0.050236937 0.049761128 0.049690291 0.050001368 0.049593285 0.049706802
0.049723186 0.049539354 0.049970657 0.050048139 0.049797449 0.049834799
0.050106607 0.049837679 0.049921118 0.050155014 0.050297201 0.050078768
0.050414179 0.050565202 0.050506625 0.05055508 0.050549991 0.050764043
0.05055055 0.05039309 0.050395355 0.050397959 0.050368104 0.050482515
0.050039534 0.050195161 0.050322298 0.050318003 0.050584182 0.050114259
0.050342098 0.050175469 0.050178178 0.05037915 0.050168518 0.050054312
0.050195705 0.049942125 0.050024536 0.049859621 0.050077047 0.050229575
0.049742233 0.049944125 0.049917981 0.049575493 0.049782962 0.049856491
0.04951942 0.049831316 0.049513333 0.049682636 0.049616776 0.04952256
0.049657173 0.049737781 0.049777314 0.049764246 0.049657129 0.049564984
0.049430128 0.049470577 0.049689546 0.049369108 0.049498465 0.049498465
0.049518146 0.049671069 0.049648087 0.049269706 0.049364079 0.049521279
0.049394064 0.049706001 0.049680453 0.049476247 0.0496707 0.049689971
0.049690921 0.049506221 0.050011724 0.049727418 0.049623199 0.049685236
0.049808279 0.049975645 0.049816806 0.050178841 0.049668144 0.050002497
0.049991298 0.050199945 0.05014402 0.050345242 0.050087038 0.050075371
0.050280001 0.050115757 0.050457079 0.050240871 0.050455008 0.05037
0.050649442 0.050448824 0.05080143 0.050770003 0.050343007 0.050470222
0.05056309 0.050581176 0.050660945 0.050506588 0.050502721 0.050737001
0.050468851 0.050274838 0.050213367 0.0504012 0.050137125 0.049985975
0.04999917 0.049990162 0.050292909 0.049843099 0.049779158 0.049988255
0.049579334 0.049520794 0.049588911 0.049521144 0.049802702 0.049775049
0.049589645 0.04976267 0.050007638 0.049731243 0.050002456 0.050046846
0.050047424 0.05002797 0.05034101 0.050641704 0.050482724 0.050711546
0.050672118 0.050725885 0.050591551 0.05054684 0.050286952 0.05034966
0.05048665 0.050641052 0.050276905 0.050239 0.050378107 0.050436109
0.050472084 0.050128236 0.050334718 0.050150257 0.050228577 0.050382145
0.050369676 0.050096512 0.050132222 0.049934011 0.050177921 0.04977756
0.050094943 0.050199647 0.04975418 0.050101809 0.049954459 0.049649496
0.049801704 0.04976568 0.049575388 0.049715545 0.049517293 0.049828559
0.049649518 0.049361855 0.049473446 0.049564697 0.049707122 0.049722027
0.049716838 0.049554002 0.049488481 0.04936634 0.049633864 0.049477108
0.049525175 0.049525175 0.049513046 0.049666211 0.049485043 0.049309943
0.049449001 0.04954648 0.049488001 0.049451001 0.049588062 0.049484182
0.049578529 0.049726583 0.04958779 0.049474008 0.05011626 0.049910843
0.049697172 0.049696106 0.049580157 0.049869731 0.04964532 0.050196737
0.049963363 0.050023895 0.049962457 0.050291296 0.05028021 0.050247129
0.050101921 0.050114039 0.050220616 0.050063353 0.050490342 0.050349113
0.050600063 0.050508149 0.050436441 0.05056344 0.05092733 0.050774064
0.050574802 0.050598621 0.050664444 0.050749358 0.05069625 0.050529573
0.050633993 0.050607581 0.05039943 0.050287578 0.050279219 0.050264329
0.050175969 0.049900174 0.049894318 0.050150059 0.050146412 0.049915094
0.049864314 0.049803853 0.049543645 0.049438711 0.049500391 0.049499776
0.049581252 0.049539208 0.049464576 0.049691685 0.049790841 0.049681291
0.050027531 0.049928125 0.049855452 0.050087225 0.050264917 0.050688814
0.050474674 0.050768189 0.050757114 0.050622597 0.050621055 0.050788216
0.050326522 0.050326928 0.050600737 0.050693218 0.050505761 0.050377026
0.050450064 0.050508332 0.050346013 0.050257001 0.050381556 0.050108153
0.050256386 0.050372351 0.050535623 0.050133992 0.050016899 0.050013065
0.050260201 0.049699277 0.050122574 0.050050169 0.049899541 0.050222479
0.049858116 0.049720768 0.049806103 0.049705025 0.049621109 0.049623556
0.049687523 0.049908638 0.049565576 0.04932465 0.049333341 0.049391817
0.049578022 0.049585003 0.049627684 0.049610566 0.049637198 0.049391035
0.049589999 0.049548008 0.04952101 0.04952101 0.049464021 0.049574636
0.049332637 0.049353432 0.049565148 0.049550071 0.049581267 0.049277253
0.049531639 0.049571313 0.049535826 0.049679343 0.04960905 0.049571011
0.050027229 0.049969718 0.049799323 0.049698237 0.049389414 0.049735546
0.049591534 0.050149642 0.050148074 0.0501526 0.049924552 0.050278977
0.050384421 0.050053485 0.050150272 0.050097186 0.050189044 0.050125159
0.050564159 0.050518014 0.050686345 0.05067702 0.050306149 0.050734032
0.050926972 0.050717 0.050824225 0.050858878 0.050823007 0.050859649
0.050665095 0.050596181 0.050642014 0.050396945 0.050395686 0.050335769
0.050370239 0.050108556 0.050275344 0.049929075 0.049850326 0.050186608
0.049851775 0.049906544 0.049858879 0.04950951 0.049566004 0.049456928
0.049362022 0.049476035 0.049380012 0.049393509 0.049463887 0.049585398
0.049539737 0.049676217 0.049921967 0.049798734 0.049780507 0.050168592
0.050278492 0.050681327 0.050504435 0.050760269 0.050755337 0.050488278
0.05065712 0.050964501 0.050524391 0.050424088 0.050649337 0.050638922
0.050708149 0.050578218 0.050615054 0.050559692 0.050298005 0.050474085
0.050471656 0.050124984 0.050301455 0.050415084 0.050510205 0.050124057
0.049899347 0.05015504 0.050262749 0.049633052 0.050068546 0.049921185
0.05011896 0.050229032 0.049703743 0.049801238 0.049823854 0.049657717
0.049641859 0.049611017 0.049881183 0.049840584 0.04941408 0.049469981
0.04927323 0.049227308 0.049415343 0.049417008 0.049494069 0.049680248
0.04978 0.049495999 0.049552523 0.049530137 0.049512226 0.049512226
0.049380004 0.049375877 0.049248759 0.049437668 0.049613405 0.049516756
0.049640905 0.049239926 0.049538027 0.049637552 0.049542718 0.049579419
0.049733065 0.049785066 0.049868025 0.049888298 0.049809869 0.04967979
0.049343031 0.049677406 0.049641151 0.050117049 0.05012951 0.050251454
0.049894493 0.05014066 0.050394949 0.049886595 0.050199851 0.050054874
0.050252184 0.050365075 0.050588135 0.050628122 0.05069058 0.050822198
0.050430998 0.05092619 0.050848067 0.050703596 0.050990429 0.0511062
0.050967794 0.050894164 0.050627079 0.050706636 0.050590076 0.050279051
0.050445929 0.05040225 0.050445609 0.050065372 0.050384268 0.050005168
0.049817391 0.050043363 0.049553305 0.049777634 0.049691193 0.049239047
0.049640045 0.049490139 0.049154047 0.04942276 0.049253598 0.049280699
0.049483743 0.049476206 0.049383234 0.049660243 0.049739197 0.04968293
0.049810115 0.050226379 0.050380003 0.050602954 0.050561011 0.050743699
0.050694589 0.050440475 0.050710309 0.050951287 0.050783787 0.050672509
0.050632704 0.050590757 0.050904471 0.050773282 0.050867025 0.050604913
0.050401021 0.050679658 0.050574109 0.05022892 0.050409574 0.050474361
0.05026805 0.050064266 0.049862429 0.050264295 0.050220862 0.049639553
0.049916927 0.049912255 0.050308406 0.050077826 0.049618658 0.049924798
0.049833313 0.049600713 0.049637191 0.049681563 0.049929231 0.049638439
0.049340092 0.049703185 0.049257074 0.049103063 0.049259808 0.049312454
0.049441259 0.049701411 0.049790125 0.049602028 0.049496595 0.049464025
0.049491148 0.049491148 0.049293041 0.049131501 0.0492341 0.049559608
0.04956058 0.049457885 0.049686205 0.04928023 0.049575776 0.04964878
0.04954689 0.049513798 0.049878236 0.049987014 0.049768105 0.049730342
0.049689785 0.049682092 0.049464539 0.049720094 0.049718734 0.050105009
0.04999724 0.050155394 0.049907267 0.049924336 0.050291751 0.049851682
0.050267436 0.05008167 0.0503961 0.050701186 0.050533421 0.050618585
0.050657574 0.050910678 0.050786115 0.051109154 0.050793365 0.05079614
0.05104119 0.051195432 0.051050257 0.050905716 0.050656721 0.050829533
0.050621163 0.05037028 0.050512522 0.050461747 0.050478898 0.050188247
0.050410777 0.050034422 0.049761407 0.049750417 0.04938658 0.049558219
0.049401078 0.049098648 0.049634252 0.049442999 0.048981085 0.049296528
0.049159594 0.049098775 0.049358182 0.04939286 0.049356002 0.049604569
0.049585383 0.049618032 0.04991645 0.050256692 0.050486032 0.050480846