# vtk DataFile Version 3.0
axinsert(project(permute(???,2,0,1),0,L2),2)
ASCII
DATASET STRUCTURED_POINTS
DIMENSIONS 128 256 1
ORIGIN 0 0 0
SPACING 1 1 1
POINT_DATA 32768
SCALARS nrrd28196 float
LOOKUP_TABLE default
0.050071031 0.050018176 0.04997215 0.049974028 0.049984105 0.050007023
0.050005164 0.050008092 0.049983066 0.050015125 0.04998016 0.049994029
0.050002422 0.050042007 0.049998999 0.049950033 0.049971294 0.049992021
0.050064433 0.049970049 0.049971551 0.050030008 0.050078467 0.050082441
0.04999011 0.049972177 0.049890134 0.049952559 0.049983017 0.050022822
0.050023004 0.049963389 0.049998343 0.050035536 0.050034054 0.050007027
0.049984004 0.05000503 0.050019003 0.049991023 0.049988031 0.049952999
0.049998239 0.050001007 0.049998198 0.050004002 0.049998015 0.050051004
0.050042015 0.050012 0.049992032 0.0499641 0.050007004 0.049978197
0.049974225 0.04999705 0.05000703 0.049977142 0.050002113 0.050024077
0.050039008 0.050082017 0.050037611 0.049930159 0.049936168 0.050032008
0.050001368 0.049959134 0.049963016 0.049997207 0.050024007 0.050011072
0.050027072 0.049966011 0.050039005 0.049970109 0.049979091 0.049987007
0.049951002 0.050061308 0.050065104 0.050010055 0.05002638 0.049955141
0.049971398 0.050011002 0.049947601 0.050007306 0.050087072 0.050001025
0.049944501 0.049952034 0.050069019 0.050042551 0.049980123 0.049987197
0.050013036 0.050007124 0.050015058 0.050013706 0.049959242 0.050002132
0.050043177 0.049995225 0.049957 0.050025377 0.050036561 0.050009497
0.05000725 0.049954891 0.049951009 0.049984071 0.049997065 0.050043035
0.05003801 0.049980193 0.049964003 0.049979009 0.050002005 0.049991999
0.049943019 0.050000641 0.050082054 0.050050057 0.04994411 0.050025344
0.049971428 0.049971428 0.050057177 0.050004203 0.049943559 0.049991153
0.050064251 0.049972009 0.050018422 0.05008702 0.050046049 0.049934156
0.049935482 0.049933031 0.049991563 0.050119001 0.050001577 0.049937051
0.049926221 0.049916103 0.050061505 0.0499718 0.049974598 0.050076198
0.050132737 0.050140318 0.049961168 0.049957994 0.049804572 0.04989804
0.050031181 0.049988508 0.050042748 0.049928386 0.04995735 0.050041486
0.050071929 0.050106376 0.050075281 0.049983021 0.050016511 0.049992051
0.049963303 0.049961124 0.050010007 0.050030019 0.050031018 0.050047006
0.049982116 0.050038002 0.049973004 0.049917258 0.04997234 0.050013397
0.050069012 0.049963195 0.049941007 0.049998101 0.049977001 0.049989168
0.050033011 0.050061088 0.049991034 0.050141521 0.050157029 0.049935009
0.049890168 0.050030004 0.049906999 0.049879007 0.050014045 0.050013207
0.050006032 0.050045129 0.050016157 0.050058231 0.050079037 0.049945325
0.050032176 0.05000063 0.049859028 0.050073225 0.050109301 0.050046179
0.050099298 0.049949568 0.049950831 0.050029453 0.049915958 0.050069448
0.05009288 0.049940586 0.049948484 0.049943913 0.050066449 0.050084744
0.049976863 0.049896792 0.0499513 0.050059281 0.050146818 0.050045043
0.049927987 0.050017461 0.050054867 0.049954921 0.049979713 0.050098564
0.050007217 0.049979225 0.049987599 0.04990853 0.04989868 0.049927432
0.049955208 0.050045293 0.050039005 0.049999028 0.049915168 0.049961999
0.050040349 0.049981009 0.049876239 0.049898002 0.050174009 0.050127011
0.049893007 0.050019 0.050007116 0.050007116 0.049909133 0.049922246
0.049989551 0.050062072 0.050118238 0.049940135 0.049981285 0.050101332
0.050105795 0.049876235 0.049922284 0.049971227 0.049948722 0.050043602
0.049964905 0.049998112 0.049934432 0.049911186 0.049937278 0.050019294
0.050040696 0.050004926 0.050063681 0.050007716 0.049932726 0.049996637
0.049980767 0.049995311 0.050040755 0.049915407 0.050045591 0.050067898
0.049940683 0.050031673 0.050030492 0.050115 0.050115027 0.049966235
0.05002296 0.050000917 0.049968041 0.050047603 0.050023604 0.050053604
0.050088383 0.050110258 0.049991086 0.049949139 0.049875069 0.049842272
0.049923219 0.050072722 0.050155174 0.05001913 0.049934004 0.050008167
0.049957 0.049996138 0.05003202 0.050037287 0.049934044 0.050040167
0.050205231 0.050104111 0.049978007 0.049944028 0.049899004 0.049905278
0.050138 0.050025403 0.050028 0.050051041 0.049978029 0.05010958
0.050016012 0.050030101 0.050059374 0.050107788 0.049914643 0.049956318
0.050056018 0.050049935 0.050131138 0.050044306 0.049959827 0.050020274
0.05005762 0.050048348 0.049933501 0.049951758 0.050054122 0.049983501
0.049985304 0.050084177 0.049988493 0.049868979 0.049908806 0.050090514
0.05017155 0.050041873 0.049974453 0.050004218 0.050024755 0.049918532
0.050028641 0.050129261 0.049985867 0.049918834 0.04990631 0.049957547
0.049917325 0.049899492 0.049914785 0.049935985 0.049974307 0.050049461
0.049949359 0.050024536 0.049983613 0.049966112 0.049971323 0.04984073
0.050018158 0.050051 0.049964007 0.049959049 0.050073188 0.050073188
0.049873084 0.049865998 0.050021216 0.050066002 0.050047386 0.049961358
0.049936309 0.050002631 0.050080501 0.049870986 0.049915649 0.050024219
0.049903862 0.04993812 0.049924251 0.05001048 0.049933646 0.049920782
0.049904097 0.050049372 0.050024517 0.049938761 0.050054643 0.049925588
0.049895499 0.050035458 0.050062392 0.050024748 0.050025526 0.049920645
0.050092645 0.050218441 0.049978051 0.050078608 0.049992554 0.050033763
0.0500466 0.049997587 0.050041866 0.049986806 0.050019234 0.050047681
0.050033428 0.050083298 0.050122675 0.050136853 0.050020352 0.050030146
0.049916271 0.049851507 0.049884122 0.050040517 0.05018919 0.050078463
0.04993606 0.050017241 0.049993072 0.049961112 0.049995106 0.05002518
0.050017055 0.050037045 0.050183013 0.050140001 0.050038025 0.049995136
0.049997076 0.049944848 0.050204299 0.050011713 0.050056249 0.050083723
0.04997443 0.050061703 0.050034296 0.050102074 0.050010659 0.050201569
0.049950719 0.049955748 0.050040398 0.050050005 0.050166938 0.050042409
0.049961727 0.050010499 0.050154574 0.05005879 0.049906597 0.050030131
0.050044797 0.04997196 0.050014026 0.050094426 0.049969904 0.04992095
0.050007623 0.050062303 0.050075557 0.050050553 0.049984552 0.04994544
0.050065063 0.049945395 0.049980778 0.050104011 0.050064553 0.04992288
0.049839791 0.049918231 0.049900338 0.049853478 0.049886987 0.049919814
0.04994411 0.050004631 0.049949907 0.05003142 0.049910728 0.049925894
0.050039299 0.049856093 0.049873382 0.04997718 0.049988065 0.04989915
0.050061006 0.050061006 0.049866077 0.049865026 0.049989056 0.050010037
0.049940508 0.049967717 0.049915809 0.049896929 0.050030988 0.049872696
0.049872011 0.049955443 0.04985024 0.049900729 0.049933605 0.050040647
0.049907196 0.04986776 0.049903426 0.050064687 0.050019197 0.049896855
0.050020803 0.04994344 0.049874954 0.05008078 0.050030328 0.049923643
0.050043754 0.050012831 0.050121114 0.050249361 0.050014112 0.05011021
0.050013226 0.04999904 0.050044294 0.050050177 0.050007921 0.04996109
0.050072413 0.050018691 0.050066512 0.05012906 0.050148051 0.05014877
0.050089419 0.050152931 0.049999971 0.049891897 0.049919352 0.050036334
0.050167218 0.05007739 0.049994282 0.049999073 0.050017364 0.049967058
0.050013136 0.050057001 0.050134011 0.05009342 0.050124064 0.050100114
0.050074 0.050107379 0.05006123 0.05000272 0.050265893 0.049999267
0.050039947 0.050090108 0.049998961 0.050047558 0.050091278 0.050094038
0.050013375 0.050250437 0.04994487 0.050028786 0.050087299 0.050098788
0.050182525 0.050016548 0.04997756 0.050005317 0.050180607 0.050133906
0.049971811 0.050051846 0.050035767 0.05000551 0.050035533 0.050075881
0.049958035 0.049990587 0.050135378 0.050035398 0.049988765 0.050058439
0.049963806 0.049903501 0.050098885 0.050036915 0.049943749 0.050039392
0.050066803 0.049937349 0.04986782 0.049843863 0.049861994 0.049773443
0.04986503 0.049947467 0.049873095 0.049877279 0.049933523 0.049990918
0.049901072 0.049877889 0.050000571 0.049864706 0.04982065 0.049931407
0.049955264 0.04985407 0.049974069 0.049974069 0.049848054 0.049876019
0.049910065 0.049917202 0.049840841 0.049903192 0.049904119 0.04984358
0.049967524 0.049882222 0.049821798 0.049826059 0.049794123 0.049907308
0.049941104 0.050036456 0.049858078 0.04982698 0.049919616 0.05006136
0.050025918 0.049890902 0.049955893 0.049988143 0.049879327 0.050084896
0.04996907 0.049811777 0.050074227 0.050100859 0.050115298 0.05016882
0.049999345 0.05014912 0.050078675 0.050031602 0.050111745 0.050099138
0.049995501 0.04993432 0.050134864 0.050024427 0.050096437 0.0501917
0.050158199 0.050193742 0.050202925 0.050199326 0.050068479 0.049963318
0.050008979 0.05007229 0.050183419 0.050044119 0.050054494 0.049986012
0.050011579 0.050031003 0.050066054 0.050117094 0.050213005 0.050161548
0.050073188 0.050073445 0.050111193 0.050167818 0.050055262 0.050101686
0.050300188 0.050014708 0.050047815 0.050073043 0.050053518 0.050083943
0.050120328 0.050086278 0.050075032 0.050252523 0.049990024 0.05010251
0.050127693 0.050154097 0.050150715 0.050042152 0.050030291 0.050017428
0.050132919 0.050199293 0.050050266 0.050029185 0.050086766 0.050085433
0.050043505 0.050070349 0.050013386 0.050059933 0.050158888 0.050038807
0.049979135 0.050018243 0.049927276 0.049909946 0.050094388 0.050099734
0.049951874 0.04996331 0.049936287 0.049923111 0.04994113 0.049812879
0.049820632 0.049713533 0.04983468 0.049919292 0.04976543 0.049743593
0.049924973 0.049962163 0.049916636 0.04983113 0.049882066 0.049859364
0.049817108 0.049873348 0.049880419 0.049817003 0.049892135 0.049892135
0.04982508 0.049849998 0.049810331 0.049793407 0.049745865 0.049791686
0.049873978 0.04985667 0.049855303 0.049864259 0.049793642 0.049714062
0.049754627 0.04990492 0.049925279 0.049984932 0.04982198 0.049835913
0.049946316 0.050047092 0.049995176 0.049904365 0.049896326 0.049982671
0.049901254 0.050034989 0.04991778 0.049812708 0.050091363 0.050124489
0.050084997 0.050063938 0.04997189 0.050197616 0.050145134 0.050104275
0.050177339 0.050125871 0.050069574 0.049926583 0.050214786 0.050088864
0.050131187 0.050270505 0.050159879 0.050243374 0.050310597 0.050182354
0.050134692 0.050063901 0.050121095 0.05013556 0.050235942 0.050055161
0.050068438 0.049986124 0.050029431 0.050143 0.050117999 0.050154094
0.050262041 0.050221428 0.05009022 0.05011408 0.050139859 0.050145481
0.050021376 0.050205227 0.050263092 0.050080616 0.050105408 0.050050434
0.050129376 0.050128616 0.05014604 0.050144318 0.050152283 0.050238073
0.050105464 0.050167091 0.050129618 0.050175071 0.050117902 0.050119702
0.050124105 0.050053872 0.050048441 0.050218157 0.050086774 0.05003421
0.050161228 0.050153743 0.050083153 0.050130215 0.050123673 0.050122797
0.050088558 0.050056409 0.050010163 0.049957369 0.049900383 0.049933042
0.050041229 0.050075255 0.049958985 0.049886219 0.04977493 0.049888026
0.049967654 0.049821869 0.0497883 0.049715616 0.049801119 0.049794283
0.049658425 0.04965277 0.049899857 0.049943585 0.049909037 0.04978995
0.049743395 0.049860369 0.049824398 0.04979337 0.049794421 0.049763009
0.04983807 0.04983807 0.049783286 0.049774051 0.04971429 0.049654644
0.049649604 0.049694177 0.049810939 0.049900003 0.04968996 0.049789608
0.049771994 0.049649123 0.049737692 0.049881693 0.049882118 0.04991338
0.049814016 0.049865562 0.049965627 0.050028395 0.049921282 0.049900588
0.049858216 0.049910434 0.049930327 0.04998092 0.049885616 0.049914416
0.050092846 0.050086319 0.05004064 0.050029561 0.049984977 0.05022537
0.050182216 0.050156374 0.050222505 0.050140452 0.05021219 0.049965888
0.050298832 0.050204545 0.050188184 0.050325014 0.050184354 0.050265741
0.050378438 0.050182473 0.050225042 0.050186079 0.050210387 0.050223656
0.05028978 0.05015184 0.050052311 0.050009813 0.050100129 0.050264042
0.050155029 0.050177004 0.050321117 0.050253276 0.050184168 0.05022949
0.050157424 0.050083023 0.050004687 0.050261125 0.050179809 0.050190177
0.050173391 0.050073341 0.050195619 0.050142471 0.050195742 0.050255861
0.050229192 0.050254054 0.050249886 0.050232675 0.050136827 0.050177388
0.05013185 0.050223187 0.050231464 0.050100472 0.050001416 0.050204229
0.050086282 0.050119866 0.050206318 0.050184976 0.050147876 0.050229017
0.050222393 0.050149754 0.05000012 0.050048191 0.050043151 0.049942281
0.049909733 0.049937434 0.049944844 0.049991619 0.049900934 0.049835082
0.049691126 0.049828332 0.049926639 0.049802821 0.049749285 0.049763929
0.049762536 0.049633145 0.049588732 0.049616545 0.049829975 0.049872696
0.049857236 0.049748126 0.049634423 0.049859859 0.049816158 0.049706656
0.049715284 0.049696092 0.049777035 0.049777035 0.04969066 0.049653329
0.049639724 0.049542964 0.049547572 0.049613692 0.049715389 0.049924135
0.049515504 0.049674824 0.049731012 0.049630441 0.049724795 0.049846932
0.04980386 0.049833894 0.049814377 0.049864396 0.04995653 0.049997997
0.04984194 0.049885605 0.049844321 0.049810436 0.049939252 0.049975112
0.049883697 0.050014503 0.050076954 0.050002735 0.050008584 0.050094228
0.050052103 0.050223619 0.050194968 0.050128702 0.050271586 0.050168183
0.050345238 0.050054669 0.050371431 0.050349321 0.050263193 0.050314594
0.050253503 0.05027644 0.050414354 0.050256599 0.050325993 0.050325885
0.050261617 0.050309591 0.050341394 0.050318111 0.050051253 0.050075583
0.050222002 0.050334234 0.050183076 0.050212074 0.050413229 0.050245095
0.050307095 0.050367866 0.050197177 0.050036639 0.050022952 0.050247151
0.050122537 0.050310057 0.050229847 0.050174478 0.050237373 0.05013749
0.0502626 0.050378162 0.050306287 0.050323594 0.050367475 0.050301008
0.050218042 0.050187025 0.050196819 0.050333999 0.050323211 0.05014753
0.050037168 0.05017912 0.050094869 0.050261397 0.050202928 0.050199211
0.050188448 0.050300445 0.050242614 0.050129253 0.049939875 0.049991049
0.050060693 0.050000321 0.049961019 0.049902465 0.049818058 0.049917132
0.049757928 0.049814887 0.04970827 0.04975573 0.04985857 0.049717564
0.049693093 0.049792144 0.049705632 0.049529217 0.049572539 0.049606141
0.049712542 0.049709171 0.049764462 0.04969573 0.049572352 0.049833804
0.049776699 0.049626078 0.049633171 0.049654186 0.049682092 0.049682092
0.049537703 0.049511775 0.049585994 0.049503352 0.049436368 0.049516123
0.049606632 0.049900502 0.049376816 0.049550205 0.049668785 0.049652766
0.049675871 0.049796391 0.049693301 0.049747605 0.049794883 0.049799692
0.049916666 0.049961887 0.049784526 0.049866259 0.049849894 0.049734887
0.049917497 0.050012618 0.04993625 0.0500254 0.050049204 0.04991325
0.050022814 0.050206725 0.050140567 0.050211553 0.050201714 0.050024807
0.05033312 0.050219771 0.050389871 0.050158486 0.050427463 0.050502501
0.050351821 0.050268013 0.050352838 0.050305158 0.050437015 0.050400287
0.050388671 0.050496843 0.050286815 0.050358221 0.050409731 0.050500061
0.050104126 0.050195862 0.050351433 0.050320342 0.050228335 0.050233178
0.050509393 0.050200004 0.050380047 0.050474033 0.050266407 0.050044417
0.050064698 0.050188832 0.050155267 0.050407887 0.050292015 0.050320566
0.050270416 0.050161719 0.050317012 0.050485797 0.050378006 0.050409909
0.050429478 0.050374534 0.050389171 0.050213315 0.050276916 0.05043358
0.050377928 0.050198436 0.050140217 0.050148815 0.050146054 0.050373681
0.050165139 0.050222382 0.050183624 0.05030648 0.050182313 0.050075069
0.049920741 0.049909305 0.050038774 0.050086416 0.050043002 0.049824815
0.049672052 0.049891647 0.049584709 0.049778875 0.049790606 0.049702242
0.049771879 0.049610224 0.0496515 0.049750213 0.049623895 0.04952357
0.049598053 0.049562789 0.049556173 0.049494471 0.049669012 0.049617182
0.049537435 0.049762145 0.049716417 0.049572188 0.049528293 0.049657121
0.049546402 0.049546402 0.049369264 0.049386069 0.049532492 0.04952991
0.049333286 0.049403153 0.049506351 0.049818087 0.049292836 0.049433362
0.049605589 0.049707755 0.049563576 0.049700309 0.049574856 0.049655363
0.049746186 0.049699146 0.049857359 0.049940474 0.049746804 0.049806319
0.049869902 0.049723729 0.049885061 0.050035618 0.050035641 0.049939081
0.050046466 0.049898513 0.050096463 0.050292868 0.050210916 0.050209615
0.050209027 0.049924858 0.050389405 0.050294984 0.050321329 0.050225697
0.05047524 0.050650008 0.050454244 0.050260853 0.050437815 0.050358661
0.050448135 0.050562065 0.050392471 0.05067499 0.050351039 0.050332084
0.050523158 0.050624467 0.050223026 0.050370026 0.050367683 0.050274104
0.050263096 0.050212063 0.050524514 0.050125323 0.050368011 0.05051747
0.050329 0.050107129 0.050103143 0.050146006 0.050267056 0.050468452
0.050385222 0.050446581 0.050322276 0.050255805 0.050350118 0.050551981
0.050441772 0.050440293 0.050455742 0.050453994 0.050593127 0.05024616
0.050349329 0.050508592 0.050380822 0.050261971 0.050262392 0.050121166
0.050231934 0.050380696 0.050122507 0.050266806 0.050156645 0.050254364
0.050097708 0.05001007 0.049953338 0.049860656 0.049969491 0.050125614
0.050105058 0.049750097 0.049541246 0.049894236 0.049469296 0.049677242
0.049883053 0.049692113 0.049633257 0.04955969 0.049664486 0.049657475
0.04954673 0.049573097 0.049645685 0.049447302 0.049381416 0.049336985
0.049612246 0.049506731 0.049489956 0.049644217 0.049673498 0.049572691
0.049420055 0.049672041 0.049373962 0.049373962 0.049253002 0.049312133
0.049445145 0.049563665 0.049279213 0.049324784 0.049416676 0.049682572
0.049267273 0.049360186 0.049557395 0.04976362 0.049427018 0.049545292
0.049479373 0.04955817 0.049692519 0.049630754 0.049796484 0.049930017
0.04972497 0.049674258 0.049879961 0.049792197 0.049879666 0.049996402
0.050123051 0.049820255 0.050118454 0.050021619 0.05020006 0.050313607
0.050252955 0.050234336 0.050205775 0.04993552 0.050409406 0.050390098
0.05019835 0.05023038 0.050533641 0.050782509 0.050575763 0.0503373
0.050488338 0.050416976 0.050468009 0.050655931 0.05039015 0.050796945
0.050494213 0.05026105 0.050669968 0.0506582 0.050383147 0.0505431
0.050209992 0.050232075 0.05025778 0.05013001 0.050397411 0.050028071
0.050316002 0.050469667 0.050348349 0.050183758 0.050133031 0.050161172
0.050382003 0.050487246 0.050476026 0.05052701 0.050400034 0.050436229
0.050346002 0.050586224 0.05049137 0.050394669 0.050476305 0.050555043
0.050742645 0.050285544 0.050437666 0.050555874 0.050350551 0.050333146
0.050348576 0.0501162 0.050316531 0.050274819 0.050122481 0.050333135
0.050153892 0.05017826 0.050046477 0.049963433 0.050029062 0.049890518
0.049897216 0.050083708 0.050086062 0.049746279 0.049491473 0.049876694
0.049478121 0.049526483 0.049925953 0.049702406 0.049441997 0.049597502
0.049706329 0.049582746 0.049515348 0.049599536 0.049677428 0.049300324
0.049242452 0.049317118 0.049599197 0.049370646 0.04940322 0.049506247
0.049667209 0.049636103 0.049360726 0.049628012 0.049178168 0.049178168
0.049210187 0.049289208 0.049321104 0.049535122 0.049296036 0.049312465
0.049327042 0.049538478 0.049285956 0.049372301 0.049525585 0.049764406
0.049361326 0.049370199 0.049405504 0.049445841 0.049666356 0.049635123
0.049745366 0.04989516 0.049739923 0.049506977 0.049835186 0.049921632
0.049911261 0.049909253 0.050128274 0.049763348 0.050264262 0.050236817
0.050268888 0.050284762 0.050303157 0.050289638 0.050191469 0.050084669
0.050404001 0.050493494 0.050127152 0.050185658 0.050607257 0.050890204
0.050699018 0.050469022 0.050506014 0.050481018 0.050486539 0.050669
0.050430112 0.0508551 0.050634786 0.05025297 0.05077384 0.05063263
0.050547216 0.050594412 0.049975254 0.050168928 0.050193429 0.050005168
0.050149199 0.049956489 0.05027004 0.050328158 0.05030686 0.050255395
0.050162248 0.050211821 0.050431076 0.050453536 0.050496511 0.050570037
0.050492454 0.050660104 0.050324127 0.05061283 0.050526146 0.050325286
0.050503001 0.050698064 0.050770767 0.050370049 0.050550047 0.050596364
0.050324813 0.050395362 0.050342992 0.050165094 0.050352104 0.050132167
0.050199375 0.050405309 0.050202895 0.050112605 0.050039839 0.049963843
0.050105877 0.049981996 0.049883977 0.050003693 0.049967796 0.049825795
0.049562786 0.049824517 0.049593017 0.04940068 0.049873665 0.049677499
0.049277391 0.049686868 0.049690407 0.049572654 0.049548045 0.049555246
0.049643077 0.049217977 0.049208671 0.049425144 0.049597614 0.049245872
0.049288057 0.049383018 0.049662817 0.049708039 0.049379878 0.049479
0.04900568 0.04900568 0.049199376 0.049295381 0.049214408 0.04941652
0.049332097 0.049329445 0.049228083 0.049460787 0.049331229 0.049459364
0.049506005 0.049672481 0.049422782 0.049247518 0.049331944 0.049312595
0.049660906 0.049677752 0.049716312 0.049825907 0.049810201 0.049400385
0.049704388 0.050058521 0.049952295 0.049830504 0.050041799 0.049825795
0.050400212 0.050406959 0.050273806 0.050250661 0.05038951 0.050365802
0.050178561 0.050296601 0.050427016 0.050583102 0.05017012 0.050169062
0.050662491 0.050960086 0.050791118 0.050589439 0.050511874 0.050570637
0.050470352 0.050674472 0.050518163 0.05084902 0.050702766 0.050339688
0.050784174 0.050593957 0.050662216 0.050464109 0.049827572 0.05006716
0.050061736 0.049902383 0.049879197 0.049945708 0.050238304 0.050112572
0.050228667 0.05032495 0.050179217 0.05024001 0.05039623 0.05036639
0.050411236 0.050569188 0.050598636 0.050796088 0.050359983 0.050624482
0.050587688 0.050296176 0.050550457 0.050850268 0.050722018 0.050492648
0.050668504 0.050645236 0.050329756 0.050443031 0.050231092 0.050269581
0.050338395 0.050059509 0.050354082 0.050443158 0.050292142 0.050088022
0.050063167 0.050027512 0.050133213 0.050064526 0.049946751 0.049946208
0.049815517 0.049919225 0.049720887 0.049786836 0.04971952 0.049368702
0.049746227 0.049585853 0.049230356 0.049759325 0.049571157 0.049616508
0.049589142 0.049448624 0.049525492 0.049243186 0.049287666 0.049567074
0.049576603 0.049182732 0.049183089 0.049301136 0.049594231 0.049706131
0.049435735 0.049262006 0.048916101 0.048916101 0.049174368 0.049303383
0.049187396 0.049235258 0.049307246 0.049318504 0.049127508 0.049483784
0.049382195 0.049527686 0.049495131 0.049516071 0.04955266 0.049216896
0.049273767 0.049193133 0.049633447 0.049685109 0.049722262 0.049760714
0.049905472 0.049436387 0.049509134 0.050137751 0.049971808 0.049815346
0.049929615 0.049986243 0.050427377 0.050426651 0.050252065 0.050251335
0.050493125 0.050436437 0.050194774 0.050464217 0.050536033 0.050646298
0.050316006 0.050277345 0.050649509 0.050978091 0.050836455 0.050657202
0.050556492 0.05067395 0.050452664 0.050728254 0.050656047 0.05078011
0.050687522 0.050476208 0.050705843 0.050563354 0.050680432 0.050232884
0.049872112 0.049951974 0.049908698 0.049881849 0.04969693 0.049962014
0.050173901 0.049871422 0.050162099 0.05036214 0.050162084 0.050198071
0.050321519 0.05025069 0.050253972 0.050522506 0.050681822 0.050759543
0.050463136 0.050651796 0.050671458 0.050368294 0.05061698 0.050965868
0.050703123 0.050579783 0.050771024 0.050679915 0.050386082 0.050480168
0.050116364 0.050359599 0.050346997 0.050104287 0.050548583 0.050411303
0.050390601 0.05011512 0.050108388 0.05014294 0.050110362 0.050087675
0.050049253 0.049927715 0.049729593 0.049949378 0.049872793 0.049825203
0.049762458 0.049440119 0.049631923 0.049461883 0.049309317 0.049774103
0.049403489 0.049660958 0.049553555 0.04934027 0.049378645 0.049317583
0.049399454 0.049636614 0.049531467 0.049213063 0.049133848 0.049259093
0.049430579 0.049586002 0.049453575 0.049066007 0.04893104 0.04893104
0.049134273 0.049299963 0.049236238 0.049053486 0.049192246 0.049260251
0.049038883 0.049544718 0.049415611 0.049480613 0.049481884 0.049376667
0.049628887 0.049245447 0.049298629 0.049152452 0.049550246 0.049624577
0.049743403 0.049749434 0.049944483 0.049611647 0.049345542 0.050117873
0.049959864 0.049877346 0.049879458 0.0501711 0.050334051 0.050318208
0.050261006 0.050279085 0.050564848 0.050465152 0.050265882 0.05054082
0.050718401 0.050675351 0.050533243 0.050520085 0.050588485 0.050937001
0.050851803 0.050698005 0.050675683 0.050764874 0.050498229 0.050852429
0.050791815 0.050696015 0.050614621 0.05061746 0.050579023 0.050517466
0.050590239 0.050046273 0.050076526 0.049875572 0.049805846 0.049947277
0.049631331 0.049929708 0.050019521 0.049686056 0.05011211 0.050314061
0.05007609 0.050088204 0.050260969 0.050128214 0.050115846 0.050451461
0.05067718 0.050587878 0.050574478 0.050723638 0.050743215 0.050554361
0.050704308 0.05104043 0.050750516 0.050631747 0.050799053 0.050692108
0.050492018 0.050551143 0.050112378 0.050397005 0.050407749 0.050254166
0.050700717 0.050331019 0.050456233 0.050171509 0.05017348 0.050271638
0.05009963 0.050066359 0.050133854 0.049914826 0.049762223 0.049898446
0.049951017 0.04993552 0.049701523 0.04957398 0.049607467 0.049373526
0.049433321 0.049723428 0.049279738 0.04965236 0.049417119 0.049300127
0.049284063 0.049330913 0.049431745 0.049588393 0.049473956 0.049309477
0.049161106 0.04923258 0.049222391 0.049376309 0.049404077 0.048962016
0.049008314 0.049008314 0.049103148 0.049285464 0.049282085 0.048924457
0.049051121 0.049185742 0.048988633 0.049525034 0.049402837 0.049325034
0.049435332 0.049316969 0.049575042 0.049254239 0.049441867 0.049231209
0.049441498 0.049531318 0.049720839 0.049776394 0.049865901 0.049831964
0.049322892 0.050019987 0.049931999 0.049988225 0.049927618 0.050304063
0.050205495 0.050190534 0.050303418 0.050285656 0.050586466 0.0504466
0.050398502 0.050564516 0.050866898 0.050695587 0.050777536 0.050817147
0.050556827 0.050869036 0.050864428 0.050778002 0.050839949 0.050837938
0.050636344 0.051006127 0.050860565 0.050641205 0.050556563 0.050711628
0.050470777 0.050419323 0.050435055 0.050014962 0.050307795 0.049873315
0.049794711 0.050033897 0.049627881 0.049796876 0.049820803 0.049585208
0.050023675 0.0501481 0.049908262 0.049962789 0.05021444 0.05000782
0.050078593 0.050369758 0.050552685 0.050402731 0.050635375 0.050821852
0.050789848 0.050788738 0.050828598 0.051084124 0.050834212 0.050707325
0.050735112 0.050692037 0.05061911 0.050699048 0.050240535 0.050426744
0.050490066 0.050447926 0.050743572 0.050261706 0.050475966 0.05021869
0.050244004 0.050365694 0.050172217 0.050049666 0.050158136 0.049890239
0.049886808 0.049798526 0.049968947 0.050033696 0.049608283 0.049727682
0.049656235 0.049357396 0.049517568 0.049626343 0.049239945 0.049570765
0.049262788 0.04935408 0.049265757 0.049226746 0.049333274 0.049441896
0.049405165 0.049382422 0.049229283 0.049201343 0.049069114 0.049152978
0.049313802 0.048963152 0.049077455 0.049077455 0.049088046 0.049263261
0.049240001 0.048862189 0.04897609 0.049132437 0.048996367 0.049362935
0.049330711 0.049165431 0.049344033 0.049324758 0.049427871 0.049207505
0.049633585 0.049399395 0.049378719 0.049460813 0.049599182 0.049767248
0.049688965 0.049983669 0.049479295 0.049922522 0.049902607 0.050107066
0.050055869 0.050333261 0.050132152 0.050129421 0.050335262 0.05024302
0.050592735 0.05043906 0.05057558 0.050608996 0.050873071 0.050750781
0.051002271 0.051060271 0.050634231 0.050857026 0.050913636 0.050930139
0.050995495 0.050898336 0.050836299 0.051098358 0.050859164 0.050636221
0.050562765 0.050722662 0.050433427 0.050292458 0.050281368 0.05013315
0.050422445 0.049936697 0.049857784 0.050036591 0.049615357 0.049611181
0.049651578 0.049534298 0.049861901 0.049889088 0.049703512 0.049857695
0.050123811 0.049903847 0.050129689 0.050279789 0.050351646 0.050313279
0.050629016 0.050924271 0.050818402 0.050992984 0.050980795 0.051087704
0.050921254 0.050862633 0.050667081 0.050679818 0.050759066 0.050877005
0.050462462 0.050495129 0.050573744 0.050612152 0.05067974 0.050270256
0.050475758 0.050232369 0.050296981 0.050410189 0.050330102 0.0500677
0.050108928 0.049884111 0.050028116 0.049693517 0.049972892 0.050029952
0.04958136 0.04987324 0.049684256 0.049391869 0.049538001 0.049518958
0.049255386 0.049442634 0.049208846 0.049460351 0.049256001 0.049063794
0.049149729 0.049243085 0.049312152 0.04934895 0.049263015 0.049171671
0.049047023 0.048994977 0.049219582 0.049028195 0.049096201 0.049096201
0.049062002 0.049214382 0.049098227 0.048846662 0.049001254 0.049105681
0.049050506 0.049109783 0.049223091 0.049095239 0.04923613 0.049331129
0.049290024 0.049157806 0.049743127 0.04956251 0.049399979 0.049427249
0.049390778 0.049674332 0.049504511 0.050017573 0.049731255 0.04990793
0.049872838 0.050185509 0.050210409 0.050248053 0.050131194 0.050125226
0.050327465 0.050193522 0.050631844 0.050506465 0.05075616 0.050715726
0.050752286 0.050858736 0.051171061 0.051164623 0.050847005 0.050975002
0.051032364 0.05112084 0.051098116 0.050968952 0.051014833 0.051066991
0.050841458 0.050683215 0.050639577 0.050651558 0.050480813 0.050209228
0.050182708 0.050296433 0.050344907 0.050008371 0.049927425 0.049889211
0.049582493 0.049471758 0.049508948 0.049490381 0.04964146 0.049621068
0.049547743 0.049762879 0.0499423 0.049837973 0.050172467 0.050178703
0.050167933 0.050339758 0.05060444 0.051008098 0.050850943 0.051121321
0.051113971 0.051041458 0.050996251 0.051097877 0.050703164 0.050692502
0.050898999 0.050992001 0.05072223 0.050628547 0.050677419 0.050723918
0.050572544 0.050390862 0.050499722 0.050229244 0.050328698 0.050435651
0.050483469 0.05009786 0.050003044 0.049939033 0.050118633 0.04959872
0.049967036 0.049918234 0.049672782 0.049973138 0.049619254 0.04944469
0.049525362 0.049426381 0.049280059 0.049326956 0.049296591 0.049521398
0.049178522 0.048972234 0.048969235 0.049031384 0.049176626 0.049203597
0.049202047 0.049168013 0.049143009 0.048943482 0.049141005 0.049073037
0.049075998 0.049075998 0.048996001 0.049099803 0.048920132 0.048861735
0.049071725 0.049079508 0.049114291 0.048887476 0.049129143 0.049111526
0.049156707 0.049279619 0.049244374 0.049191419 0.049702596 0.049626682
0.049461756 0.049404681 0.049184594 0.049532935 0.049400624 0.049970578
0.049929 0.049980287 0.049839966 0.050176788 0.050332814 0.050081626
0.050170925 0.050122689 0.050314877 0.050228842 0.050701082 0.050642274
0.050889101 0.050874028 0.050654072 0.051015362 0.051255058 0.051158633
0.05113006 0.051222 0.051214829 0.051288597 0.051143695 0.051070467
0.051108301 0.050948083 0.050866067 0.050773732 0.050758228 0.050558086
0.05059842 0.050222583 0.050144292 0.050375611 0.050105192 0.050019249
0.049916495 0.049614511 0.049571592 0.049417499 0.049337324 0.049434096
0.049408007 0.049412068 0.049482331 0.049655862 0.049709525 0.049808286