# vtk DataFile Version 3.0
axinsert(project(permute(???,2,0,1),0,L2),2)
ASCII
DATASET STRUCTURED_POINTS
DIMENSIONS 128 256 1
ORIGIN 0 0 0
SPACING 1 1 1
POINT_DATA 32768
SCALARS nrrd77040 float
LOOKUP_TABLE default
0.049969066 0.049994066 0.050046369 0.049977023 0.050001752 0.050044067
0.050004128 0.050007999 0.050040003 0.050031058 0.049988043 0.049983043
0.049979046 0.050021 0.049980212 0.049959008 0.050016999 0.050040111
0.050042059 0.049984381 0.049974076 0.049995072 0.049977012 0.050012067
0.050011009 0.050020002 0.050004169 0.049976036 0.049982999 0.050019
0.049972054 0.049960133 0.050020032 0.050021097 0.050026171 0.04999302
0.049994167 0.050004028 0.049998511 0.049996048 0.049956199 0.049973074
0.049993005 0.050038062 0.0500561 0.049992077 0.049989145 0.050002012
0.050007876 0.049998011 0.050007384 0.050004106 0.050024126 0.049974348
0.049958002 0.050010093 0.04998507 0.049990125 0.050031196 0.050030004
0.050025258 0.050051115 0.04999128 0.049927037 0.049960144 0.049965065
0.049998004 0.050005 0.049977001 0.050002169 0.049973119 0.050006665
0.050025001 0.050039746 0.050014451 0.04996717 0.050032012 0.050008107
0.050027099 0.050014231 0.049947053 0.049948081 0.050016154 0.050005022
0.049976211 0.049992014 0.050040279 0.050097238 0.050048206 0.049976435
0.049920142 0.049986999 0.050022062 0.050028 0.049987212 0.049943063
0.049984999 0.049971048 0.0499992 0.049986001 0.04999819 0.050057076
0.05005702 0.049990065 0.049988002 0.049999151 0.049989004 0.050020017
0.049986027 0.049979012 0.050009008 0.050010037 0.05004102 0.050004289
0.049998034 0.049998146 0.049978029 0.050023075 0.050010219 0.049980015
0.049989 0.04994316 0.050003476 0.050028089 0.050014999 0.049984038
0.050011054 0.050011054 0.049958013 0.049920999 0.050074097 0.049997002
0.050009001 0.050128002 0.049975101 0.049964037 0.050041005 0.050076146
0.049991999 0.049977046 0.050027002 0.050041031 0.049938016 0.049931005
0.050072018 0.050137062 0.050032105 0.04998501 0.049959168 0.049897008
0.049988002 0.050036091 0.049935009 0.050040018 0.050040007 0.049940005
0.050031003 0.050021306 0.049891036 0.049999028 0.050040185 0.050043009
0.050085459 0.04999302 0.050006598 0.050100103 0.049979422 0.049944043
0.049933758 0.049897365 0.049970258 0.050050247 0.050105099 0.050067257
0.050021693 0.050011571 0.050096333 0.049966842 0.049976297 0.04999635
0.049991291 0.049951579 0.049902435 0.050047237 0.049953707 0.04998821
0.050046667 0.050023172 0.050075367 0.050118223 0.049983222 0.049828246
0.049893133 0.049974088 0.050023314 0.04999226 0.049885172 0.049889002
0.049959023 0.050059102 0.050028026 0.050112013 0.050066106 0.049921069
0.050036054 0.049989 0.050032999 0.050053012 0.049930062 0.049887035
0.050078005 0.050021116 0.049969044 0.049993478 0.050108142 0.050154608
0.050035011 0.049953148 0.04990001 0.049999364 0.049967013 0.050028063
0.049948037 0.049905006 0.049992006 0.049964115 0.050023999 0.049972229
0.049997002 0.050069511 0.050089139 0.050039265 0.049964 0.050031062
0.049958058 0.050037041 0.049925011 0.049934 0.050110001 0.04995127
0.050001234 0.050069019 0.050013013 0.050002087 0.049892999 0.050065
0.050016001 0.049912002 0.050031058 0.049950063 0.050009001 0.050073143
0.050003007 0.04998105 0.049992017 0.049992017 0.049984999 0.049911004
0.050022006 0.050050031 0.050010186 0.050085064 0.049966011 0.049965076
0.050022103 0.050031073 0.049993005 0.050011162 0.050098069 0.050043013
0.049976163 0.04994107 0.050061066 0.050107006 0.049970999 0.050021999
0.049970001 0.049849004 0.050069001 0.050091114 0.049854212 0.050008036
0.050093088 0.049907167 0.050066002 0.049995147 0.049886022 0.050103199
0.050034251 0.050062232 0.050054405 0.05004802 0.050101992 0.05015666
0.049938183 0.049896505 0.050024789 0.04989627 0.049974035 0.049996529
0.050062582 0.050113309 0.050026458 0.05002401 0.050142609 0.049967039
0.049972884 0.049993195 0.049919065 0.049994767 0.049931578 0.050016034
0.04995916 0.050000049 0.050009981 0.049980767 0.050039686 0.050014373
0.049982063 0.049895227 0.049920384 0.050009377 0.05005537 0.0499826
0.049842436 0.049816523 0.050026372 0.050083943 0.049982343 0.050096534
0.050064135 0.049952373 0.049958244 0.049940068 0.050021067 0.05008911
0.049986176 0.049891368 0.050025176 0.050081018 0.050090574 0.05004476
0.050073162 0.049959399 0.049936011 0.049955074 0.050002001 0.050021213
0.049916003 0.049960114 0.049934004 0.050025124 0.050052173 0.049954377
0.050026119 0.050047308 0.050024841 0.049964439 0.050021388 0.05006614
0.049967263 0.050036129 0.049938276 0.049999055 0.049933117 0.049943209
0.050137077 0.049924094 0.049960144 0.050052151 0.050015002 0.050003063
0.049899001 0.050039139 0.050012019 0.049933109 0.050075006 0.05003019
0.050000079 0.050027136 0.049961001 0.049965028 0.049981024 0.049981024
0.04995602 0.049962003 0.049993008 0.050125021 0.050010305 0.050001021
0.049981043 0.050006039 0.050033107 0.049993057 0.049955029 0.05005116
0.050133105 0.050071035 0.050046194 0.049896073 0.050009068 0.050057005
0.049980003 0.049994014 0.049957067 0.049906004 0.050108004 0.050165012
0.049890153 0.049987242 0.050102126 0.049874287 0.050051149 0.050036248
0.049919479 0.050109521 0.050063565 0.050087739 0.049979709 0.050101239
0.050202996 0.050130684 0.049934596 0.049904175 0.050066791 0.049955554
0.049983583 0.049971025 0.050072495 0.050067216 0.049971718 0.050027549
0.050107736 0.050027061 0.050002467 0.050014168 0.049933903 0.050009467
0.049955107 0.049979813 0.049977858 0.0499698 0.049983103 0.049985617
0.04998811 0.049938191 0.049939606 0.049942791 0.049935892 0.049982708
0.050072648 0.050004743 0.049865797 0.04986519 0.050059583 0.050046105
0.049959976 0.050030734 0.050023478 0.049973354 0.049900424 0.04991309
0.050047312 0.050096173 0.05003928 0.049913481 0.049930546 0.050121125
0.050189808 0.050091434 0.050028894 0.049828254 0.049926311 0.04992529
0.049989287 0.050004169 0.049930159 0.049968172 0.049952302 0.050072342
0.05007036 0.049955346 0.050007571 0.050146256 0.050053403 0.04995143
0.049997624 0.050001331 0.049957678 0.050034251 0.049936723 0.049970243
0.049979318 0.049923547 0.050059211 0.049980067 0.050011359 0.049984265
0.050003137 0.049968198 0.049948089 0.050009329 0.049996011 0.049983125
0.050047085 0.050033018 0.049993061 0.049968064 0.049938004 0.049953014
0.049986001 0.049986001 0.049936 0.04998903 0.049954016 0.050193999
0.050017126 0.049961001 0.049969088 0.050002016 0.05001504 0.049988046
0.049933072 0.050058138 0.05015802 0.050091077 0.050116032 0.049881011
0.049949042 0.050016016 0.050023001 0.049962014 0.049952026 0.04995602
0.050081 0.050200999 0.049977023 0.049996208 0.050103046 0.049912289
0.050059434 0.050084326 0.049967784 0.050104726 0.050089836 0.050086934
0.049933922 0.050106846 0.05020874 0.050089661 0.050003421 0.049949657
0.050063852 0.050028507 0.050021667 0.049994569 0.050088298 0.049996734
0.049942594 0.050030295 0.050070398 0.05007783 0.049998969 0.050042696
0.049976651 0.050007392 0.049981531 0.049981654 0.049967729 0.049904175
0.049978632 0.04999321 0.049978774 0.049931195 0.049915668 0.049949937
0.049905524 0.049964432 0.050061211 0.050013114 0.049918287 0.04993071
0.050017945 0.049987834 0.049933165 0.049993612 0.049988922 0.049942326
0.0498625 0.049909178 0.050063487 0.05007622 0.050074361 0.04996131
0.049911741 0.050136413 0.050183762 0.050062224 0.050021436 0.049838323
0.049953938 0.049933549 0.049972385 0.049964484 0.049930956 0.050003447
0.049994219 0.05003877 0.050052688 0.050009564 0.050001305 0.050182551
0.050070245 0.049995687 0.050004873 0.049919844 0.049943924 0.050047841
0.049930751 0.049918678 0.05000424 0.049919896 0.049969304 0.049985327
0.050041161 0.049979493 0.049998276 0.049963381 0.049955368 0.049970258
0.049957167 0.04998605 0.049997095 0.050013009 0.050031025 0.049926013
0.049926005 0.049979005 0.04995602 0.04995602 0.049943 0.050011054
0.049926061 0.050198019 0.050006006 0.049981002 0.049954053 0.049978003
0.050003011 0.050014 0.049910076 0.050007045 0.050156012 0.050093114
0.050163016 0.049912039 0.049930014 0.04999401 0.050051007 0.049945999
0.049961999 0.049959008 0.050058004 0.050216999 0.050041001 0.050006084
0.050128005 0.050012194 0.050066493 0.050101228 0.050016597 0.050110616
0.050105728 0.050095778 0.049964078 0.050077479 0.050163649 0.050069876
0.050078526 0.050000779 0.05004105 0.050084535 0.050095696 0.050051022
0.050087567 0.049984071 0.049932983 0.05000383 0.050058253 0.050095804
0.049989682 0.050081771 0.050019458 0.049995527 0.049990159 0.049994227
0.049934253 0.049850531 0.04998764 0.050004747 0.049986821 0.049926668
0.049913596 0.049930561 0.049872149 0.049945276 0.050028656 0.050017618
0.049945623 0.049947698 0.049935523 0.049942732 0.04991895 0.049988721
0.049958855 0.049894445 0.04985052 0.049911473 0.050060526 0.05006336
0.050066408 0.050000321 0.049951665 0.050136749 0.050127517 0.050030373
0.050050441 0.049927607 0.049980387 0.049988963 0.04998441 0.049935166
0.049927175 0.050006147 0.050023865 0.049989402 0.05003031 0.050061081
0.050001632 0.050148107 0.050070927 0.050040148 0.050018318 0.04988027
0.049950041 0.050014459 0.049895406 0.049864028 0.050007135 0.049955975
0.049927335 0.049946889 0.050041091 0.050026789 0.049979374 0.049986482
0.049923517 0.049936213 0.049914319 0.049948044 0.049944129 0.049986005
0.050062031 0.049901001 0.049925003 0.050009999 0.049928017 0.049928017
0.049965002 0.050052017 0.049926091 0.050147038 0.049972001 0.050003
0.049956001 0.049966 0.050018001 0.050046023 0.049876012 0.049934998
0.05012108 0.050081097 0.050155148 0.049967211 0.049975004 0.050008006
0.050058015 0.049940005 0.049977005 0.049934998 0.050055005 0.050212
0.050073028 0.05001501 0.050152998 0.050116047 0.050074253 0.050103098
0.050069299 0.050125424 0.050124448 0.050140608 0.050040044 0.050035562
0.05011769 0.050068043 0.050126679 0.050048597 0.050029252 0.050124619
0.05017475 0.050096784 0.050090253 0.050035112 0.049924448 0.04995713
0.050071828 0.050119773 0.049999613 0.050112151 0.050050158 0.049979612
0.049962897 0.049986515 0.049906466 0.049847089 0.050002832 0.050011434
0.04997471 0.049907833 0.049906246 0.049903627 0.049875751 0.049911879
0.049984999 0.050011866 0.04992763 0.049919445 0.049872119 0.04990888
0.049925741 0.049979981 0.049925577 0.049882706 0.049865682 0.049912937
0.050034672 0.050051596 0.050059505 0.05002268 0.049997702 0.050116215
0.050092429 0.05005607 0.05006678 0.050007127 0.050011553 0.050056696
0.050000411 0.049941994 0.049930844 0.049973145 0.050028216 0.049973108
0.050008096 0.050057679 0.049999576 0.050093696 0.050067928 0.050063647
0.050014004 0.04988645 0.049964171 0.049934678 0.049859334 0.049842354
0.049991295 0.049995057 0.04994652 0.049907446 0.05002024 0.050080068
0.04993752 0.04999451 0.049885418 0.049918268 0.049881302 0.049920112
0.049910218 0.04995203 0.050062068 0.049886022 0.049923033 0.050007004
0.049912002 0.049912002 0.049975004 0.050102003 0.049943037 0.050087005
0.049940016 0.050002005 0.049974021 0.049967002 0.050045017 0.050046019
0.049856044 0.049882002 0.050066188 0.050058082 0.050117325 0.050018236
0.050044097 0.050050035 0.050060004 0.049932018 0.049989015 0.049914002
0.050045028 0.050189037 0.050089095 0.05003801 0.050165009 0.050181005
0.05009703 0.050114017 0.050126098 0.050145201 0.050149195 0.050204393
0.050113671 0.050014049 0.050092686 0.050068922 0.050155684 0.050096285
0.050041229 0.050155636 0.050219674 0.050109055 0.050114777 0.050097749
0.049932748 0.049948368 0.050116334 0.050164744 0.050023355 0.050126389
0.050057702 0.04997126 0.049911685 0.049956821 0.049898852 0.049882792
0.050019689 0.04999724 0.049930938 0.049888033 0.049893487 0.049885932
0.049897235 0.04986912 0.049924329 0.049974807 0.049892444 0.049881324
0.049846958 0.049884174 0.049931709 0.049960136 0.04990758 0.049918111
0.049890064 0.049911402 0.049998008 0.050029963 0.050081771 0.050045338
0.050033063 0.050085958 0.050099824 0.050112206 0.050053403 0.050049961
0.050047874 0.050094556 0.050009023 0.049984779 0.049940016 0.049949151
0.050018925 0.049980972 0.049982049 0.05000652 0.049999937 0.050063618
0.050061647 0.05005832 0.049988393 0.049908798 0.049978651 0.049857907
0.04985185 0.049854968 0.049967084 0.05001352 0.049983185 0.049875855
0.049991842 0.050099365 0.04988078 0.049962681 0.049859352 0.049906459
0.049854212 0.04992428 0.049893249 0.049923174 0.050054125 0.049877174
0.049901098 0.049967028 0.049890999 0.049890999 0.049967006 0.050132059
0.049962003 0.050045028 0.049937073 0.04999001 0.049995106 0.049966998
0.050053112 0.050015002 0.04986031 0.049862999 0.050009377 0.050035104
0.050095513 0.050045136 0.050073411 0.050089147 0.050073225 0.049917094
0.05000329 0.049920056 0.050015152 0.050166171 0.050102241 0.050081123
0.050167043 0.050201129 0.050135031 0.050144013 0.050172001 0.05016401
0.050182022 0.050257105 0.050168194 0.050034415 0.0500995 0.050068647
0.050181568 0.050141003 0.050071973 0.050187573 0.050222423 0.0501085
0.050160524 0.050139364 0.049976163 0.050011694 0.050185017 0.050201409
0.050047554 0.050139099 0.050044008 0.049974598 0.049861416 0.049921352
0.049905565 0.04991439 0.050038081 0.049958836 0.049869779 0.04987536
0.049893487 0.049885705 0.049891431 0.049827125 0.049851518 0.049910743
0.049863324 0.049851418 0.049849004 0.049868517 0.049919866 0.0499532
0.049921967 0.049967546 0.049908552 0.049904805 0.049972475 0.050010514
0.05011633 0.050071958 0.050074831 0.0500779 0.050122056 0.05014715
0.050038476 0.050070088 0.050070804 0.05008037 0.050015226 0.050047562
0.049960423 0.049968291 0.050014369 0.049988277 0.049966399 0.049951088
0.050010387 0.050063442 0.05004048 0.050032619 0.049957842 0.049921989
0.049978841 0.049817715 0.049870424 0.049879123 0.049943779 0.050010588
0.049992438 0.049850311 0.04996701 0.05006779 0.049830236 0.049904134
0.049838535 0.049878787 0.049831256 0.049934577 0.049872242 0.049909323
0.050061163 0.049872387 0.049846146 0.049910042 0.049858 0.049858
0.049951013 0.050118126 0.049968123 0.050014153 0.049966283 0.049981039
0.050007336 0.049961038 0.050038364 0.049972102 0.049875766 0.049863059
0.049967766 0.050025202 0.050103836 0.050039161 0.050043035 0.050101485
0.050090048 0.04990742 0.050017033 0.049959328 0.049990512 0.050155409
0.050111558 0.050128412 0.05016223 0.050191492 0.050176296 0.05018222
0.050196104 0.050179135 0.050223041 0.050292011 0.050216001 0.05009504
0.050146203 0.050083358 0.050215393 0.050174713 0.05011766 0.050225392
0.050208133 0.050123367 0.050214577 0.050171293 0.050053291 0.050118137
0.050249681 0.050202366 0.050070364 0.050157987 0.050026923 0.049995821
0.049826812 0.049898107 0.049905367 0.04992184 0.050051279 0.049902909
0.049811807 0.049869657 0.049916629 0.049887445 0.049843457 0.049786057
0.049781565 0.049839862 0.049848329 0.049836729 0.049859181 0.049861882
0.049891144 0.049974401 0.049957562 0.049998898 0.04992393 0.049899261
0.049966063 0.050009217 0.050139248 0.050105467 0.05013603 0.050106876
0.050131045 0.05015276 0.050052211 0.050083481 0.05007555 0.050037418
0.050025634 0.050100725 0.049997624 0.050029021 0.050022513 0.04998723
0.049970306 0.049931586 0.050033238 0.050076265 0.050003383 0.050004959
0.049936529 0.049913518 0.049954906 0.049817614 0.049897268 0.049891151
0.049923208 0.049982384 0.049960036 0.049828138 0.049942426 0.050000429
0.049795907 0.049843881 0.049807124 0.049834222 0.049814641 0.049920976
0.049833365 0.049895484 0.050072178 0.049870428 0.049769148 0.049853038
0.049819998 0.049819998 0.049933031 0.050060153 0.049955398 0.049983289
0.050006643 0.049971126 0.049998812 0.049957242 0.050017845 0.049929354
0.049883422 0.049865361 0.049945399 0.050023511 0.050112542 0.050013579
0.049981989 0.050086215 0.050091509 0.049920417 0.050029088 0.050015211
0.049996328 0.050155934 0.0501073 0.0501641 0.050150909 0.050178234
0.050211985 0.050211851 0.050207715 0.050201684 0.050264366 0.050315343
0.050270215 0.050182056 0.050224006 0.050125081 0.050260197 0.050199341
0.050176386 0.050270993 0.050215859 0.050170377 0.050272737 0.050218441
0.050143927 0.05021539 0.050280999 0.050170705 0.050092164 0.050175138
0.050034635 0.050032929 0.049811859 0.049893849 0.049888972 0.049911294
0.050043456 0.049847569 0.049773242 0.049864803 0.049953997 0.049874555
0.04977446 0.049747095 0.049727645 0.049772192 0.049844492 0.049834248
0.049865443 0.049864322 0.049861509 0.050008919 0.04998697 0.050010294
0.049948119 0.049918942 0.049971927 0.050030079 0.050148543 0.050143197
0.05020963 0.050157912 0.050124101 0.050153624 0.050102469 0.050096389
0.050071962 0.050008304 0.050045669 0.050125957 0.050051 0.050100725
0.050032135 0.049981896 0.049992952 0.049954813 0.050060149 0.050078634
0.04996587 0.049984276 0.049930926 0.049889315 0.049915742 0.049849965
0.049916022 0.049881279 0.049894046 0.049929898 0.049892835 0.049802616
0.049906757 0.049920406 0.049774803 0.049801864 0.049761154 0.049791865
0.049799584 0.049870428 0.04978377 0.049850795 0.050051227 0.049859304
0.049700122 0.049798038 0.049789 0.049789 0.049904067 0.049971152
0.049927704 0.049954351 0.050027993 0.049948361 0.049967416 0.049954735
0.050007589 0.049888842 0.049873311 0.049869072 0.049931318 0.050010335
0.05008791 0.049991988 0.049933299 0.050050609 0.050065428 0.049958482
0.05004343 0.050057087 0.050033912 0.050159257 0.050089892 0.050186694
0.050146516 0.050177611 0.050242409 0.050226152 0.050233189 0.050253585
0.05030207 0.050336089 0.050327774 0.05027248 0.050311133 0.050197031
0.050310019 0.05023003 0.050249141 0.050323427 0.050263528 0.050247118
0.050339654 0.050292298 0.050227325 0.050281096 0.050277874 0.050131887
0.050108202 0.050185133 0.050081547 0.050077796 0.049819812 0.049908429
0.049867336 0.049891897 0.050000567 0.049811281 0.049754854 0.049853068
0.049976334 0.049843121 0.049722463 0.049715288 0.049690869 0.049715679
0.049851913 0.049833003 0.049865771 0.049872924 0.049846958 0.050032787
0.049997155 0.050015945 0.049986333 0.04998092 0.04998216 0.050063204
0.050157111 0.050188567 0.050278526 0.050205275 0.050117869 0.050174329
0.050177824 0.050117083 0.050075907 0.050021466 0.050076135 0.050124686
0.050104856 0.050156508 0.050034467 0.049984463 0.050023742 0.050001808
0.050084665 0.050068308 0.049941801 0.049967282 0.049940649 0.049861778
0.049884561 0.049899571 0.049921203 0.049848292 0.049848273 0.049858987
0.049810171 0.049760975 0.049850244 0.049841888 0.049753081 0.049778022
0.049711421 0.049763888 0.049769875 0.04979701 0.049743459 0.049766395
0.04996838 0.049827211 0.049658112 0.049735066 0.049766012 0.049766012
0.049854126 0.049873136 0.04989684 0.049930349 0.050007187 0.049909785
0.049917921 0.049937483 0.049999587 0.04985176 0.049846418 0.049872328
0.049905632 0.049972057 0.050030012 0.049990639 0.049914062 0.050002899
0.050012752 0.050009545 0.05006237 0.050069939 0.05007847 0.05016201
0.050068587 0.050202619 0.050165165 0.050187923 0.050266985 0.050235428
0.05028253 0.050342079 0.050338365 0.050365366 0.050382752 0.05034747
0.050390828 0.050287563 0.050364107 0.050280154 0.050331999 0.050381031
0.050343148 0.05034652 0.050420139 0.050385565 0.050308865 0.050331254
0.050266307 0.0501123 0.050119426 0.050193638 0.050156884 0.050117612
0.0498509 0.049930915 0.049853481 0.049866661 0.049928632 0.049797561
0.04975637 0.049830876 0.049957506 0.049803786 0.049703453 0.049697611
0.049670178 0.049678259 0.04987466 0.049819872 0.049859256 0.049888585
0.049849529 0.05003478 0.04999841 0.050031904 0.050030839 0.050082073
0.049999565 0.050102748 0.050180849 0.050239742 0.050330613 0.050238207
0.050129637 0.050213121 0.050262094 0.050157439 0.05009634 0.050075695
0.050117195 0.050119739 0.050146237 0.050184157 0.050034996 0.050004371
0.050060313 0.050048139 0.050092962 0.050049726 0.049928583 0.049945869
0.0499571 0.049851663 0.049869895 0.049938764 0.04990954 0.049803503
0.049789146 0.04978054 0.049731471 0.049698181 0.049775485 0.049771156
0.049715042 0.049748372 0.049670707 0.049743339 0.04971803 0.049714878
0.049714174 0.049663186 0.049827725 0.049767256 0.049637157 0.049660131
0.049738012 0.049738012 0.049787171 0.049790096 0.049860749 0.049897358
0.049936354 0.049858384 0.049860399 0.049889367 0.049973775 0.049820296
0.049808681 0.049860224 0.049857639 0.049914848 0.049959645 0.050001957
0.049912527 0.049951144 0.049956556 0.050056968 0.050084215 0.050058361
0.050100837 0.050159205 0.050054226 0.050220624 0.050202686 0.050193448
0.050286844 0.050262917 0.050350465 0.05044274 0.050376821 0.050407734
0.050434578 0.05040637 0.05046038 0.050385974 0.050422847 0.050343007
0.050426263 0.050444134 0.050437007 0.050461058 0.050509464 0.050486639
0.050402783 0.050398208 0.050282389 0.050135028 0.050140586 0.050214902
0.050232526 0.050142772 0.049901143 0.049949545 0.049848452 0.049842559
0.049855899 0.049797632 0.049774833 0.049800411 0.049889799 0.04976109
0.049704585 0.049695134 0.049659468 0.049670883 0.049905617 0.049792439
0.04984599 0.049901001 0.049864165 0.050024476 0.050007004 0.050059896
0.050076816 0.050194219 0.050030816 0.050150737 0.050223719 0.050295528
0.0503668 0.050263699 0.050167017 0.050257884 0.050338738 0.050225008
0.050136432 0.050149392 0.050171219 0.050137494 0.050173819 0.050193716
0.05005027 0.050047196 0.050101973 0.05007631 0.050079666 0.050028674
0.049917664 0.049923573 0.049977995 0.049865283 0.049863879 0.049938168
0.049876906 0.049762264 0.049734626 0.049706474 0.049663711 0.049619984
0.049694892 0.049702264 0.049647808 0.049686931 0.049641985 0.049715981
0.049650893 0.049630065 0.049677741 0.049568769 0.049666319 0.049680471
0.04961329 0.049574193 0.049688999 0.049688999 0.049720183 0.049729053
0.049806617 0.049835443 0.04982372 0.049793106 0.049803205 0.049817387
0.049911007 0.049791545 0.049766205 0.049816865 0.049790483 0.049859453
0.049902633 0.050008446 0.049907029 0.049904212 0.049920972 0.05008734
0.050100144 0.05004226 0.050092861 0.050151333 0.050054632 0.05023719
0.050237115 0.050186407 0.050305724 0.050319642 0.050420061 0.050519157
0.05041616 0.050466958 0.050495971 0.05046463 0.050532058 0.050490417
0.050494585 0.050411541 0.050534334 0.050519794 0.05053537 0.050589066
0.050600048 0.050590102 0.050523754 0.050491348 0.050343279 0.050206926
0.050193418 0.050260779 0.050293066 0.050156478 0.049957547 0.049954325
0.049850453 0.049836643 0.049805652 0.049801424 0.04980151 0.049771395
0.049792543 0.049715303 0.049702171 0.049692959 0.049648736 0.049693447
0.049922388 0.049761351 0.049831893 0.049900953 0.049889829 0.050018691
0.050033916 0.050100628 0.050126269 0.050290287 0.050092012 0.050217219
0.050280839 0.050354704 0.050392285 0.05029989 0.050233655 0.050300665
0.050396528 0.050311875 0.05019436 0.05022246 0.050237548 0.050185762
0.050202198 0.05020871 0.050095707 0.05010939 0.050143369 0.050087105
0.050053172 0.050002735 0.049903475 0.049908254 0.049992777 0.049890947
0.049850717 0.049885806 0.049817447 0.049730789 0.049697362 0.049640711
0.049602304 0.049543045 0.049617358 0.049622845 0.049544901 0.049585819
0.049615435 0.049672462 0.049582645 0.049542319 0.049607217 0.049500924
0.049526084 0.049573861 0.049561523 0.049481221 0.049608015 0.049608015
0.049659207 0.049677037 0.049722679 0.049732663 0.049688514 0.049708944
0.049740747 0.049751718 0.049810376 0.049752507 0.0497224 0.049738377
0.049715079 0.049816579 0.049863987 0.049993355 0.049885739 0.049871076
0.049912326 0.050098237 0.050100259 0.050032243 0.050063912 0.050137199
0.050071325 0.050248507 0.050250061 0.0501769 0.050329365 0.050392628
0.050473131 0.050549772 0.050451688 0.050539311 0.050576445 0.050538603
0.050618239 0.050596096 0.050591707 0.050487675 0.050655402 0.050618909
0.050640222 0.050724465 0.050691072 0.050696008 0.05066916 0.050601762
0.050449215 0.050325759 0.050287858 0.050334632 0.050344214 0.050173458
0.050007209 0.049944978 0.04986196 0.049858849 0.049786061 0.049798392
0.04982565 0.049747173 0.049698669 0.049670257 0.049678363 0.049667079
0.049621012 0.049725898 0.049901579 0.049746789 0.049823627 0.049889654
0.049927428 0.050027635 0.05007989 0.05015713 0.050190061 0.050363459
0.05019059 0.050305169 0.050344549 0.050416276 0.050421402 0.050367229
0.050325952 0.050343957 0.050430335 0.050403148 0.050268449 0.050296072
0.050316326 0.050260324 0.050246634 0.050251022 0.050170437 0.050171811
0.050166748 0.050089799 0.05003019 0.049974099 0.049889218 0.049899515
0.049986105 0.04990378 0.049817204 0.0497959 0.049728654 0.04970286
0.049674995 0.049579114 0.049542569 0.049481139 0.049542166 0.049519304
0.049418814 0.049462255 0.049574334 0.049606718 0.049518414 0.04944836
0.049493711 0.049453873 0.049425758 0.049452312 0.049472742 0.049384229
0.04950206 0.04950206 0.049595308 0.049612083 0.049612142 0.049596064
0.049544793 0.049605846 0.04966405 0.04971147 0.049677119 0.049685914
0.049671698 0.049646676 0.049647015 0.049787007 0.049830832 0.049946364
0.049851619 0.049853932 0.049922932 0.050094642 0.050076809 0.050029211
0.05003364 0.05011024 0.050094116 0.050252572 0.050242167 0.050186761
0.050361902 0.050452825 0.050500579 0.050551329 0.050489675 0.050616916
0.050672453 0.050628949 0.050722089 0.050703999 0.050723396 0.050586533
0.050790299 0.050754525 0.050762374 0.050857078 0.050792549 0.05080213
0.050825998 0.050716374 0.050588507 0.050482426 0.050415199 0.05043282
0.050403021 0.050216172 0.050044291 0.049936287 0.049897518 0.049901027
0.049786165 0.049782846 0.049841307 0.04971711 0.049635768 0.049638167
0.049629908 0.049599115 0.04956729 0.049741127 0.049837034 0.049760196
0.04982575 0.049882453 0.049972903 0.050048593 0.050143611 0.050238613
0.050272863 0.050428838 0.05032476 0.050410226 0.050417021 0.050481487
0.050471459 0.050477266 0.050441917 0.05039712 0.050450623 0.050483253
0.050353125 0.050380673 0.050397485 0.050345205 0.050314605 0.050324861
0.050256692 0.050214339 0.050160162 0.050092682 0.050027225 0.049954742
0.049881563 0.049883839 0.049941678 0.049884353 0.049759567 0.049697988
0.049627852 0.04966443 0.049650479 0.049514547 0.049481258 0.04943829
0.049458403 0.049390502 0.049297649 0.049341619 0.049497873 0.049507979
0.049449205 0.049350031 0.049353186 0.049414027 0.049356032 0.049322747
0.049352825 0.049287252 0.049380101 0.049380101 0.049505506 0.049514256
0.049491089 0.049454626 0.049400117 0.049485754 0.049563378 0.04969437
0.049526278 0.049581014 0.049607903 0.049567964 0.049588457 0.049757283
0.049783006 0.049871318 0.049810935 0.049839549 0.049931701 0.050080031
0.05003453 0.050021075 0.050017234 0.050072495 0.050110605 0.050255552
0.050236743 0.050227836 0.050400309 0.050477583 0.050505914 0.050562039
0.050546177 0.050693493 0.050768174 0.050715093 0.05083387 0.050814148
0.050881803 0.050717954 0.050938483 0.050930582 0.050910547 0.050978813
0.050913338 0.050914276 0.050983161 0.050838169 0.050749224 0.050667033
0.050559036 0.050544389 0.050485071 0.05030458 0.050073147 0.049949773
0.049960785 0.04994018 0.049787052 0.049752615 0.049844336 0.049662061
0.049604312 0.049623799 0.0495659 0.049492266 0.049492307 0.049712762
0.049746964 0.049801715 0.049844995 0.049900372 0.050020885 0.050075565
0.05022081 0.050347973 0.050376084 0.050507043 0.05048098 0.050530441
0.050510671 0.050551854 0.050556008 0.050623305 0.050574217 0.050468963
0.050479442 0.050544851 0.050448071 0.050483011 0.050467171 0.050425857
0.0503943 0.050412375 0.05032802 0.05022607 0.050125107 0.050089583
0.050044037 0.049961273 0.049885351 0.049843527 0.049855608 0.049825121
0.049671445 0.049617823 0.04954423 0.049603216 0.049598645 0.049438588
0.049421526 0.049402159 0.049361326 0.049258489 0.049203873 0.049233787
0.04937578 0.049366318 0.049363025 0.04924649 0.049210601 0.049358528
0.049293861 0.049191143 0.049215801 0.049198318 0.049245138 0.049245138
0.0493747 0.049381632 0.049373094 0.049342316 0.049260631 0.049356472
0.049440403 0.049671788 0.049372323 0.049444597 0.049527425 0.049521528
0.049532201 0.049707212 0.049705531 0.04977259 0.049765073 0.049813412
0.049919095 0.050055686 0.049980722 0.049998499 0.050014034 0.050031342
0.050111163 0.050261058 0.050256945 0.050285764 0.050436586 0.05047176
0.050509054 0.05060922 0.050631698 0.050767206 0.050853085 0.050774243
0.050942991 0.050930135 0.051040478 0.050876804 0.051097736 0.051141284
0.051087171 0.051090285 0.05105881 0.051039275 0.051131245 0.05098914
0.050916344 0.050878946 0.050706062 0.050656244 0.050600361 0.050437581
0.05011436 0.050006904 0.050031338 0.049949799 0.049772982 0.049700264
0.049824595 0.049557194 0.049577244 0.049611382 0.049494367 0.04936482
0.04940474 0.0496324 0.049661685 0.049853023 0.049878448 0.049953897
0.050066937 0.050113101 0.050306298 0.050480515 0.050495002 0.050605997
0.050640602 0.050666228 0.050644666 0.050632548 0.050674323 0.050787646
0.050706971 0.050568882 0.050538402 0.050593175 0.050551988 0.0505918
0.050515551 0.050497618 0.050463643 0.050480936 0.050360162 0.050210077
0.050079949 0.050069384 0.050064418 0.049995758 0.049897417 0.049768995
0.049738616 0.04974144 0.049554408 0.049561013 0.049501382 0.049520046
0.049507175 0.049353894 0.049364008 0.049352545 0.049257483 0.049156688
0.049144201 0.049123451 0.049204178 0.049187437 0.049257044 0.049131807
0.049085006 0.04927408 0.049223501 0.049073406 0.049071886 0.049123399
0.04908625 0.04908625 0.049212679 0.049229123 0.049260251 0.049271047
0.049135886 0.049225803 0.04930523 0.049613282 0.049231015 0.049298052
0.049433913 0.049509972 0.049463157 0.049619291 0.049595792 0.049659472
0.049711112 0.049764827 0.049876276 0.050022986 0.049927436 0.049949296
0.050012711 0.050003503 0.050102718 0.050266773 0.050307393 0.050333079
0.050464351 0.050465047 0.050534613 0.050695438 0.050740436 0.050839376
0.050923463 0.050803266 0.051041067 0.051059499 0.051169585 0.051036041
0.051261462 0.051375166 0.05128951 0.051203828 0.051229171 0.051184054
0.051272012 0.051180437 0.051083434 0.05111374 0.050857492 0.050758719
0.050751388 0.050597802 0.050195191 0.050109785 0.050066445 0.049919009
0.049734294 0.049611777 0.049757905 0.049391851 0.049517926 0.04956457
0.04941332 0.049239095 0.049316462 0.049510345 0.049609583 0.04988984
0.049924765 0.050036497 0.05011801 0.050176624 0.050390936 0.050619517