# vtk DataFile Version 3.0
axinsert(project(???,0,L2),2)
ASCII
DATASET STRUCTURED_POINTS
DIMENSIONS 256 1 1
ORIGIN 0 0 0
SPACING 1 1 1
POINT_DATA 256
SCALARS nrrd70895 float
LOOKUP_TABLE default
0 0 0 0 0 0 0 0 0 0 0 0 0 0 0 0 0 0 0 0 0 0 0 0 0 0 0 0 0 2.6457512e-06
1.9261361e-05 0.00013539942 0.00095135113 0.0063257646 0.039034769
0.21551141 0.97677326 2.2963493 1.4343791 1.5355783 1.3526195 0.94124919
1.1566398 1.5626038 1.8225394 1.7566046 1.5236611 1.8021811 1.755054
1.6460478 2.0401099 2.4760792 2.0952692 1.6255292 1.2957475 1.1044101
0.99926478 0.93684924 0.895289 0.86514342 0.8420521 0.82323259 0.8072592
0.79299569 0.7796005 0.76672256 0.75434273 0.74251437 0.73124474 0.72051281
0.7103073 0.70065171 0.69157493 0.6828081 0.67458123 0.6667136 0.65911579
0.65161127 0.64417112 0.63721752 0.63067192 0.62498081 0.62019068
0.61600924 0.61218506 0.60772717 0.6026904 0.59706205 0.59046406 0.58375686
0.57772821 0.57281071 0.56956983 0.56813997 0.56748575 0.56701475
0.56574166 0.56368542 0.56163889 0.5562529 0.55322522 0.54939163 0.54517686
0.54146916 0.53759116 0.53255415 0.52554822 0.51909119 0.51508057
0.51281679 0.50768751 0.49650082 0.49454108 0.55409759 0.63782138
0.66248727 0.65742254 0.64890957 0.66035044 0.67931545 0.64625371
0.54480857 0.43115351 0.43713105 0.51958233 0.59455264 0.63145119
0.55588299 0.55588299 0.50708675 0.46467972 0.41146693 0.35799384
0.32781044 0.36541042 0.47102416 0.53702623 0.58580083 0.61173403
0.58170408 0.47646415 0.33498663 0.26676482 0.25446716 0.25141624 0.2545557
0.2643176 0.27890161 0.2968314 0.31467804 0.32912663 0.33563894 0.33331072
0.32251832 0.30441889 0.2815057 0.25969654 0.24389209 0.23444261 0.22918516
0.23448622 0.24942379 0.27596724 0.31505561 0.36858439 0.42887184
0.48720753 0.53925103 0.58686906 0.63259554 0.67891026 0.72424787
0.76637197 0.80437863 0.8353188 0.86081088 0.88094997 0.89257675 0.8939895
0.88494331 0.86745495 0.84472024 0.82021439 0.79676628 0.77511603
0.75472128 0.73485661 0.7128371 0.68171352 0.6380713 0.58007622 0.51858819
0.45824063 0.39742854 0.33684927 0.27877539 0.21855454 0.14361799
0.06525223 0.014178315 0.0013250683 0.00011225863 8.660254e-06 0 0 0 0 0 0
0 0 0 0 0 0 0 0 0 0 0 0 0 0 0 0 0 0 0 0 0 0 0 0 0 0 0 0 0 0 0 0 0 0 0 0 0 0
0 0 0 0 0 0 0 0 0
