# vtk DataFile Version 3.0
axinsert(project(permute(???,2,0,1),0,L2),2)
ASCII
DATASET STRUCTURED_POINTS
DIMENSIONS 128 256 1
ORIGIN 0 0 0
SPACING 1 1 1
POINT_DATA 32768
SCALARS nrrd77318 float
LOOKUP_TABLE default
0.050005045 0.049976248 0.050002653 0.050057054 0.050065003 0.049951393
0.049992133 0.04998247 0.050037034 0.049955625 0.050017923 0.050006699
0.049961265 0.0499065 0.049964018 0.050053339 0.050078239 0.049993023
0.050003964 0.05002024 0.049912017 0.050006736 0.050021008 0.049988955
0.050009053 0.050024748 0.050051309 0.049996223 0.049967293 0.050026126
0.049971003 0.049952228 0.049950529 0.049997699 0.050099567 0.050002027
0.049912408 0.050013952 0.050073024 0.050004065 0.049998913 0.050022122
0.050013006 0.050013691 0.050059125 0.05001102 0.049997095 0.050008066
0.049921155 0.049962219 0.050046284 0.050024696 0.050032485 0.049969722
0.050007291 0.050007138 0.050019037 0.049998999 0.050003 0.049989212
0.049957238 0.049975127 0.050020725 0.049998999 0.049991116 0.049980164
0.049948052 0.050004553 0.050032001 0.049994003 0.049980786 0.050004013
0.049933638 0.050046194 0.049961004 0.050052587 0.050013769 0.049969267
0.04997411 0.050003681 0.049984332 0.049942266 0.050044805 0.050022375
0.04997782 0.050000459 0.050040916 0.050040051 0.049964022 0.049968071
0.049999561 0.050001074 0.04998409 0.049979191 0.050063223 0.050036203
0.049984049 0.050028004 0.050021149 0.05000627 0.049998999 0.049991146
0.049952019 0.049973059 0.050021045 0.049993187 0.050036158 0.050092749
0.049971595 0.050025802 0.050021153 0.050032482 0.049888212 0.049906
0.049998999 0.050014213 0.050085194 0.050011411 0.049949307 0.050028261
0.05007812 0.049990032 0.050014 0.050051551 0.049969528 0.049956135
0.049971063 0.049971063 0.049952142 0.049884006 0.05000611 0.050072044
0.049967356 0.049754463 0.049912848 0.050035547 0.050078109 0.049946949
0.050037503 0.050144147 0.050017312 0.049807001 0.049784359 0.050156761
0.050080225 0.049904853 0.050117996 0.050151337 0.049824983 0.050018288
0.050084725 0.050015312 0.049970325 0.049906328 0.05006573 0.050071619
0.050034739 0.050013863 0.049987603 0.049853005 0.049890768 0.050011002
0.050129805 0.050087746 0.04981539 0.049954139 0.050154462 0.050030943
0.049981672 0.050065011 0.049963102 0.049984202 0.050110221 0.05009095
0.049898852 0.049917579 0.05008398 0.049969364 0.050152872 0.050017104
0.049980033 0.049873222 0.049814906 0.050073508 0.050088909 0.050071802
0.050061479 0.050155498 0.050022088 0.050025031 0.050041147 0.049919095
0.049982 0.050030015 0.0498727 0.049885027 0.050007209 0.050018076
0.049976137 0.049914271 0.05004736 0.049981002 0.050085623 0.050152175
0.050034016 0.049884982 0.049969658 0.050134037 0.049986813 0.049945153
0.050191909 0.050063509 0.049914829 0.049927078 0.049910843 0.050051481
0.05000658 0.049955692 0.049979083 0.050021883 0.050006334 0.05001726
0.050177336 0.049980484 0.049921777 0.050073769 0.050045725 0.049981814
0.04995051 0.049979493 0.0499411 0.049917031 0.050060723 0.050042253
0.050261423 0.050178755 0.049957551 0.049919885 0.049981672 0.050050385
0.049716666 0.049761686 0.049986243 0.050096672 0.050072376 0.049936999
0.049880028 0.05018514 0.050146002 0.049901083 0.050010089 0.050177999
0.049934022 0.049832083 0.049944211 0.049944211 0.049881022 0.049879007
0.049933001 0.049920008 0.049673405 0.049839728 0.049978126 0.049979839
0.050026037 0.049897857 0.050173432 0.05015127 0.050095886 0.049906075
0.049833108 0.050079089 0.049800131 0.049858056 0.050187644 0.050153989
0.049848266 0.050010145 0.050100908 0.050098207 0.049960367 0.049812995
0.049953129 0.050140172 0.050070908 0.049955096 0.050207183 0.049925268
0.049942348 0.050086003 0.049945492 0.050113399 0.049882866 0.049934
0.049877383 0.049948052 0.050077591 0.050094612 0.049929347 0.050008032
0.050018527 0.050030623 0.049933635 0.049813092 0.050304092 0.050092727
0.050153125 0.050027858 0.049820438 0.049887914 0.049800124 0.049998306
0.050166249 0.050160185 0.05026203 0.050247483 0.050186116 0.050040159
0.050026 0.049929075 0.050002694 0.050079089 0.04994886 0.049921382
0.049846951 0.050111104 0.050004389 0.049936078 0.050193377 0.049911018
0.050187755 0.050095152 0.050136164 0.049936522 0.050001275 0.05019654
0.050089598 0.050037608 0.0502166 0.050086919 0.049989641 0.049872342
0.049692817 0.050012294 0.050036717 0.049886573 0.050067447 0.050073549
0.050079931 0.050057311 0.05003868 0.049943775 0.049919195 0.050053637
0.050054803 0.049936656 0.049891636 0.049991239 0.049992483 0.049940448
0.050042119 0.050079416 0.050242178 0.050154112 0.049953029 0.049823541
0.050005622 0.049962025 0.049733967 0.049765728 0.049930435 0.0501015
0.049823135 0.049920216 0.049958102 0.050122947 0.050058167 0.049930509
0.049971063 0.050023068 0.049990438 0.049852151 0.050016548 0.050016548
0.049897015 0.049960013 0.049915999 0.049866095 0.049552049 0.050097197
0.049854234 0.049860045 0.049933001 0.049856063 0.050228007 0.050009646
0.050109047 0.049955443 0.050106384 0.049852096 0.049616065 0.049865361
0.050261386 0.050149001 0.049791694 0.050102029 0.050018013 0.050007291
0.049990755 0.049835052 0.049952865 0.050206181 0.049873687 0.049976766
0.050393254 0.049986068 0.050077002 0.050167259 0.049866118 0.050057113
0.049995162 0.050051417 0.049566075 0.049884126 0.050156023 0.050102349
0.049866036 0.050116211 0.04993102 0.049926024 0.050136358 0.049879376
0.050148044 0.050095029 0.050105006 0.050115012 0.049791537 0.049924001
0.049940333 0.049985219 0.050160181 0.050222002 0.050383426 0.050130118
0.050208453 0.049891543 0.050049033 0.050141022 0.05001707 0.050075661
0.050141566 0.049933013 0.049698047 0.050096087 0.050018046 0.050090153
0.050173566 0.049998261 0.050108261 0.050104216 0.050201859 0.05001336
0.049979288 0.050201032 0.05011104 0.050055008 0.050148141 0.050136235
0.050141029 0.049940113 0.049625613 0.050050199 0.049881827 0.049778223
0.050086755 0.050040565 0.050197132 0.050062001 0.049902085 0.049985096
0.049920116 0.049993057 0.050099004 0.050010111 0.049873229 0.050088372
0.050029561 0.049952693 0.050033063 0.049955919 0.05006621 0.050139003
0.049888067 0.04987203 0.050030801 0.049879085 0.049787082 0.04973254
0.049904093 0.049993563 0.049802497 0.049963683 0.050043236 0.0499488
0.050015219 0.049965601 0.049923852 0.049793407 0.050067417 0.049933694
0.05007413 0.05007413 0.050034031 0.049948022 0.049975034 0.049897198
0.049640018 0.05016195 0.049661335 0.04991002 0.049941067 0.049910445
0.050000019 0.050041147 0.049948558 0.050038595 0.050377853 0.049713004
0.049740899 0.04975206 0.050348196 0.050103374 0.049762394 0.050301671
0.04994376 0.04989187 0.050009243 0.049853764 0.05009383 0.05022392
0.049632233 0.050043061 0.050410114 0.050051577 0.050217528 0.050221477
0.049919065 0.049887143 0.050248034 0.050229978 0.049427133 0.049966846
0.050114524 0.050041903 0.049829379 0.050179675 0.049862776 0.04984596
0.050346076 0.050113495 0.049854446 0.050031427 0.050050367 0.050253101
0.049885228 0.049812235 0.049996272 0.050146148 0.050070141 0.050161548
0.050166156 0.050033167 0.050131861 0.049802013 0.050017245 0.050388593
0.049889442 0.05000693 0.050285578 0.049651951 0.049672086 0.049986247
0.049971756 0.050259318 0.050128993 0.050079033 0.049912337 0.050152756
0.050158389 0.049977574 0.049977772 0.050247017 0.050055888 0.049948301
0.04999755 0.050166331 0.05028728 0.050146949 0.049761936 0.050016679
0.049788285 0.049845655 0.050004698 0.049888898 0.050336093 0.050055493
0.049894594 0.050001629 0.04987466 0.049985852 0.050180808 0.05015834
0.049943715 0.050260212 0.050042719 0.049894452 0.050062485 0.049884889
0.049955547 0.050096367 0.049884595 0.05005582 0.049892128 0.049836099
0.050005373 0.049651071 0.049893241 0.049981002 0.049985304 0.049971972
0.050028149 0.049866963 0.050120573 0.049879074 0.049883224 0.049743947
0.050092842 0.050018273 0.050074123 0.050074123 0.050111003 0.049877021
0.050000083 0.04988002 0.049925279 0.050048117 0.049750019 0.05007169
0.050121035 0.049939945 0.049738221 0.050267808 0.04958814 0.050243843
0.050406143 0.049735419 0.049982022 0.049674124 0.050328344 0.049974613
0.049836989 0.050354041 0.050009806 0.049970593 0.050083689 0.049913466
0.050257377 0.050097726 0.049574159 0.050092645 0.05036037 0.050245211
0.050243583 0.050189197 0.049964439 0.049726956 0.050470836 0.05027806
0.049589507 0.050121821 0.049934696 0.049934745 0.049902372 0.05015856
0.049785309 0.049876712 0.05035435 0.050254483 0.049795736 0.050112531
0.050096087 0.050315928 0.049915083 0.049622118 0.049983144 0.050236758
0.049991198 0.049938325 0.049748499 0.049964808 0.050066307 0.04990425
0.049748737 0.050422806 0.049713232 0.049810413 0.050330665 0.04939213
0.049620517 0.049935013 0.049994115 0.050281964 0.050046079 0.050110504
0.049739592 0.050082885 0.050003041 0.049873676 0.050056282 0.050143868
0.050008744 0.049823146 0.049875196 0.050208814 0.050343167 0.050237101
0.04998257 0.049948618 0.049967062 0.050080433 0.049932338 0.04982084
0.050314505 0.050056808 0.04991512 0.050050758 0.049904209 0.050058573
0.050209105 0.050197951 0.050053477 0.050380405 0.049973924 0.049861263
0.050113693 0.04996331 0.049868625 0.05002987 0.049962044 0.050284211
0.049789686 0.04983281 0.050304729 0.049653023 0.049900655 0.050092354
0.050025549 0.050014239 0.050024766 0.049788043 0.050209776 0.049816422
0.049829721 0.049943332 0.050067417 0.050078448 0.050026324 0.050026324
0.050005063 0.049873035 0.050031047 0.049833264 0.050251193 0.049982756
0.050050005 0.050104856 0.050247151 0.04998216 0.049814247 0.050400823
0.049339566 0.050328981 0.050215065 0.049761415 0.050132897 0.049795534
0.050240792 0.049970757 0.049922839 0.050206784 0.050176397 0.050206669
0.050212488 0.050068542 0.050268918 0.049887307 0.049714081 0.050140265
0.05033439 0.050434481 0.050166521 0.050063174 0.04998678 0.049757879
0.050491225 0.050100993 0.050060242 0.050214618 0.04972909 0.049888164
0.049924593 0.050018761 0.049766514 0.050031371 0.050082777 0.050210487
0.050020944 0.050315391 0.050159164 0.0501655 0.049911946 0.049582366
0.050079335 0.050081532 0.04986947 0.049750723 0.049448829 0.049769629
0.049888771 0.049961008 0.049367636 0.050119534 0.049650721 0.049590725
0.050361365 0.049521685 0.049409334 0.049878396 0.050175924 0.050025869
0.049870264 0.050115816 0.049751274 0.049995296 0.049774908 0.049843997
0.050043128 0.049801379 0.049994849 0.049794689 0.049926113 0.050324626
0.050290067 0.050029349 0.050052218 0.05001105 0.050282024 0.050322216
0.049927883 0.049969353 0.050097197 0.050107762 0.04995928 0.050194412
0.050112125 0.050149415 0.050106686 0.050040737 0.050065573 0.050369717
0.049893983 0.04994202 0.05009231 0.050062969 0.049896915 0.049997959
0.050008792 0.050398387 0.049909554 0.049920555 0.050455268 0.049727451
0.049926076 0.050110828 0.049917743 0.050012499 0.050187401 0.049669273
0.050180439 0.049894378 0.049754035 0.050259203 0.050007001 0.050105397
0.050028 0.050028 0.049906127 0.049948227 0.050166003 0.04984853
0.050336495 0.050023936 0.050345317 0.04999708 0.050056178 0.05012805
0.050186489 0.050316215 0.049493678 0.050122995 0.050035052 0.049770281
0.050140202 0.04995795 0.050198469 0.050126825 0.050025623 0.050077979
0.050277129 0.050448924 0.050266299 0.050237902 0.050245937 0.049734399
0.049886897 0.050169252 0.05025373 0.05039968 0.050105669 0.050060999
0.050096616 0.049979232 0.050380751 0.049842473 0.050527316 0.050172012
0.049702164 0.04988277 0.049842458 0.049850602 0.049959216 0.050132375
0.049729176 0.050148088 0.050217882 0.050413564 0.050074689 0.04988198
0.049955554 0.049792893 0.050296545 0.049770284 0.049650054 0.049669616
0.049339972 0.049534354 0.049518306 0.049823362 0.049213536 0.049806014
0.049605932 0.049454425 0.050284795 0.049789652 0.049253304 0.049649399
0.050297793 0.04964098 0.0497129 0.050095588 0.049994092 0.050007626
0.049590617 0.049894106 0.049836598 0.049443383 0.050025616 0.049840394
0.050066855 0.050381534 0.050218772 0.049768146 0.049930997 0.050186727
0.050488468 0.050389405 0.050020497 0.050235357 0.049899563 0.050179392
0.050134789 0.050376721 0.05039138 0.050175283 0.050002459 0.049787689
0.049950823 0.050224036 0.049896263 0.050113577 0.050025098 0.050148755
0.050166108 0.050008506 0.050023898 0.050338902 0.050141286 0.050090019
0.050358113 0.049738754 0.049950197 0.049936239 0.049908064 0.049905691
0.050263129 0.049819965 0.050074071 0.05002483 0.049731016 0.050389279
0.04992 0.050142825 0.050201125 0.050201125 0.049978267 0.050075796
0.050337009 0.050037969 0.050124519 0.050111506 0.05047334 0.049899206
0.049767353 0.050256155 0.050462633 0.050245155 0.049934249 0.049791027
0.049984258 0.049845688 0.050042458 0.049975466 0.050183322 0.050232932
0.050212041 0.050125666 0.050251644 0.050539017 0.050166413 0.050341841
0.050357733 0.049772192 0.050051708 0.050161876 0.050099615 0.050151173
0.05009516 0.050267104 0.050262455 0.050214052 0.050267834 0.04974876
0.05058717 0.050117537 0.049928438 0.049823113 0.049824793 0.049827959
0.050293077 0.050063066 0.04952684 0.050136525 0.050172139 0.050298113
0.049958095 0.049748458 0.049915522 0.049993426 0.050337881 0.049540751
0.049479827 0.049524181 0.04926037 0.049401347 0.049191739 0.049619131
0.049417999 0.049670003 0.049487289 0.049401108 0.050008979 0.049710765
0.049389631 0.049360357 0.050084487 0.049479041 0.049665559 0.050016522
0.050235704 0.050058682 0.049528275 0.049879197 0.049657624 0.049340066
0.050001208 0.049845479 0.05009421 0.050265126 0.050159641 0.049819596
0.049817529 0.050300099 0.050506506 0.050246507 0.050129835 0.050446715
0.049935531 0.050224099 0.050394796 0.050429292 0.050519232 0.050099298
0.050041124 0.049747497 0.049873486 0.050065584 0.049903546 0.050169822
0.050089896 0.050269775 0.050503574 0.050097879 0.050139319 0.050157022
0.050227296 0.050233029 0.050117619 0.049676031 0.049991719 0.04980468
0.049998809 0.049825691 0.050103206 0.050285242 0.050013494 0.050043661
0.049845271 0.050201919 0.049934011 0.05021143 0.050357409 0.050357409
0.050162174 0.050168324 0.050370041 0.050400387 0.049941298 0.050152265
0.050297465 0.049958073 0.049773712 0.050211798 0.050372534 0.05036303
0.050307263 0.049689852 0.050037924 0.049955163 0.049908839 0.049956247
0.050189443 0.050189685 0.050394855 0.050274331 0.050176784 0.050399363
0.050015006 0.05043757 0.05048807 0.049976692 0.050273288 0.050157439
0.04999369 0.049925033 0.050094679 0.050425753 0.050401732 0.050321158
0.050216734 0.049914815 0.050303172 0.050166268 0.050166793 0.049736276
0.049949527 0.05002448 0.050430402 0.049875218 0.049528673 0.050062083
0.050065476 0.05010201 0.049990412 0.049821958 0.049712982 0.049904428
0.049962509 0.049514212 0.049367681 0.049429029 0.049181536 0.049252033
0.049123649 0.049421575 0.049703743 0.049435284 0.049342714 0.049403083
0.049670089 0.049371857 0.049668074 0.049283549 0.049641497 0.049668808
0.049708627 0.049856603 0.050130565 0.049972136 0.04962692 0.049770731
0.0497263 0.049576242 0.049835067 0.04979191 0.049983673 0.050102565
0.050037146 0.050114814 0.049900558 0.050278299 0.050482918 0.050076231
0.050171703 0.050502833 0.050196726 0.050252676 0.050509896 0.050276585
0.050413571 0.049981575 0.050102182 0.050084475 0.050021894 0.050009824
0.049910378 0.050005697 0.050283883 0.050372634 0.050652321 0.05026957
0.050332621 0.049989291 0.050159756 0.050298657 0.049885102 0.049704969
0.050092287 0.049948562 0.050007671 0.04978019 0.050116763 0.050544631
0.050061487 0.050032746 0.049988113 0.049929246 0.050123874 0.050245035
0.050224118 0.050224118 0.050344139 0.050086461 0.050260004 0.050682019
0.050057333 0.050105978 0.049939096 0.050167132 0.05005113 0.050065935
0.050116673 0.050409224 0.050402019 0.050005261 0.050121564 0.05006529
0.049890246 0.050071914 0.050244853 0.050106585 0.050410613 0.050335184
0.050134629 0.050141674 0.050007831 0.05051636 0.050485224 0.050206199
0.050461601 0.050204966 0.049999215 0.049893536 0.050080117 0.050368302
0.050495256 0.050366882 0.05022309 0.050188527 0.050190445 0.050232068
0.05013568 0.0497334 0.0500829 0.050296318 0.05022902 0.049694497
0.049647026 0.0499571 0.050104715 0.049890175 0.050014503 0.049812894
0.04958763 0.049643762 0.049423352 0.049577605 0.049145658 0.049564
0.04919105 0.049010381 0.049251065 0.049187612 0.04965616 0.049090087
0.049179193 0.049393158 0.049393926 0.049231146 0.049709104 0.049450085
0.049328905 0.049918454 0.049734246 0.049671039 0.049660377 0.049680766
0.049842957 0.049691357 0.049985383 0.050044604 0.049672499 0.049776413
0.049858321 0.049988743 0.0498848 0.050283916 0.050146773 0.050209764
0.050507646 0.050154723 0.050198071 0.050415747 0.050426748 0.050260361
0.050374098 0.050094284 0.050217982 0.049986497 0.050070073 0.050468773
0.050347857 0.050025105 0.050070338 0.049838245 0.050345168 0.050413396
0.050571892 0.050378583 0.050412565 0.050016452 0.050140388 0.050304968
0.049764581 0.04994991 0.050221063 0.050243482 0.049909625 0.049810927
0.050287157 0.050337307 0.050138704 0.050193761 0.050000601 0.049878228
0.050242469 0.050206043 0.049960386 0.049960386 0.050411981 0.049917128
0.05015029 0.050635077 0.050239358 0.050134115 0.049777027 0.050409999
0.050256848 0.050053887 0.050033078 0.050110124 0.050283335 0.050482076
0.050234117 0.050225399 0.050050769 0.050271507 0.05025785 0.050086644
0.050274547 0.050230116 0.050211187 0.050013177 0.050131574 0.050437503
0.050386991 0.050363462 0.050497994 0.050275475 0.050096858 0.050056893
0.050096184 0.050222643 0.050510444 0.050478723 0.050224267 0.050391637
0.050370261 0.050185166 0.049980059 0.049860705 0.050106641 0.050307382
0.049880099 0.049689356 0.049788445 0.049980659 0.050253287 0.049614985
0.049800225 0.049580794 0.049722657 0.049528565 0.049088962 0.049582984
0.048873767 0.049615949 0.049215045 0.048905712 0.049355 0.0490321
0.049290244 0.048847403 0.049044561 0.049278721 0.04914638 0.049323894
0.049452495 0.049621701 0.04930969 0.049859762 0.049642917 0.049493611
0.04928593 0.049369249 0.049968921 0.049723495 0.050201803 0.050413419
0.049737837 0.049829468 0.049804688 0.04988645 0.049911752 0.05024999
0.050350368 0.05019315 0.050409168 0.050466008 0.050299857 0.050324064
0.050414823 0.050189674 0.050226055 0.050091993 0.050114259 0.050190881
0.050136626 0.050479889 0.050556179 0.050121073 0.050376125 0.049906023
0.050190698 0.050424386 0.050317556 0.050299596 0.050346259 0.050172579
0.050203323 0.050289895 0.049814291 0.05034066 0.050286002 0.05033727
0.049920019 0.049968682 0.050223071 0.049989138 0.050244 0.050375137
0.050002217 0.050015565 0.050126009 0.050178476 0.04990172 0.04990172
0.050338414 0.049902458 0.050099343 0.050310127 0.050235435 0.050303735
0.04999401 0.050585348 0.050264262 0.05027784 0.050135028 0.049778298
0.050129753 0.05069061 0.050356854 0.050416201 0.05019626 0.050379615
0.050156876 0.050123025 0.050195314 0.05007235 0.050366323 0.050122205
0.050190661 0.05026811 0.050302252 0.050432898 0.050435562 0.050283667
0.05023884 0.050297476 0.050229087 0.050138358 0.050432343 0.050611138
0.050161574 0.050493073 0.0504364 0.050105274 0.050097931 0.050084744
0.050018791 0.049897633 0.04961231 0.049928997 0.04989782 0.050109997
0.050356407 0.049404431 0.049490269 0.049349897 0.0499021 0.049588066
0.049033504 0.049424209 0.048795987 0.049283672 0.049114827 0.049075171
0.049254004 0.049033619 0.04897204 0.048737332 0.049007617 0.049059816
0.048893772 0.04930409 0.049224868 0.049639937 0.049435377 0.049514778
0.049495276 0.049344078 0.049349833 0.049246598 0.049810566 0.049887937
0.050161593 0.050328404 0.050015341 0.049854603 0.049825314 0.0498676
0.050141297 0.05026434 0.050411612 0.050271317 0.050091326 0.050674118
0.050416555 0.050351411 0.05028655 0.050088957 0.050286818 0.050265547
0.050171968 0.050428029 0.050360329 0.050216332 0.050455455 0.05037339
0.050564498 0.050121617 0.050048333 0.050346717 0.050004169 0.050177749
0.050295491 0.050181326 0.050238293 0.050325062 0.049992517 0.050636265
0.050247688 0.050153092 0.050121572 0.050141037 0.050125569 0.049844734
0.05029713 0.050354142 0.050156124 0.050138138 0.050002079 0.050216954
0.050066084 0.050066084 0.050254062 0.050094333 0.050090596 0.04998026
0.050198555 0.050380472 0.050343297 0.050616756 0.050256036 0.050548736
0.050242975 0.049869929 0.050098103 0.050539818 0.050357845 0.05054063
0.05018761 0.050290529 0.050055057 0.050201185 0.050290033 0.05007191
0.050373539 0.050306827 0.05018333 0.050239205 0.050283965 0.05045297
0.050399527 0.050270669 0.050325464 0.050411973 0.050468542 0.050136179
0.050352629 0.050592072 0.050097771 0.050498255 0.050227851 0.05016692
0.05051646 0.050334197 0.049923003 0.049444489 0.049521159 0.050203409
0.049952827 0.050171014 0.050190922 0.049429249 0.049412042 0.04930494
0.049819104 0.049563464 0.049157664 0.049079947 0.048974 0.0488782
0.048969075 0.049230617 0.04894213 0.048982095 0.04887135 0.048661005
0.048942588 0.048853122 0.048636712 0.049110476 0.049251091 0.049526956
0.04946503 0.049230441 0.049434718 0.049323581 0.049564634 0.049262028
0.049488999 0.050083574 0.049890753 0.049933817 0.050273374 0.04982233
0.049894501 0.050021905 0.050284073 0.05044537 0.050399046 0.050382629
0.049818099 0.050576832 0.05044305 0.050437909 0.050287962 0.05015485
0.050449193 0.050442062 0.050377563 0.050521974 0.050490387 0.050069038
0.050229814 0.050637674 0.05048579 0.050249264 0.050057795 0.050144114
0.049844719 0.050241418 0.050318994 0.0500414 0.050263371 0.050411388
0.050188314 0.050615516 0.050169189 0.050058167 0.050280634 0.05029707
0.050153028 0.05001846 0.050181009 0.050122958 0.050321575 0.050263222
0.050037034 0.050331745 0.050266042 0.050266042 0.050227553 0.050379708
0.050183751 0.049859002 0.050281234 0.050185274 0.050488215 0.05050442
0.050347138 0.050609298 0.050338034 0.050234381 0.050236415 0.050291326
0.050201554 0.050529305 0.050174206 0.050066989 0.050101105 0.05038704
0.050433893 0.050248515 0.050193831 0.050385658 0.050235346 0.050348874
0.05032032 0.050445843 0.050444003 0.050398327 0.050311346 0.05035124
0.050670147 0.050213292 0.050345652 0.050386693 0.050107002 0.050396383
0.050082449 0.050305646 0.050814562 0.050535113 0.04994436 0.04943737
0.049594171 0.050213855 0.049988735 0.050035603 0.04972019 0.049619488
0.049553718 0.049412735 0.049511123 0.049368005 0.049320549 0.04878458
0.049185961 0.048749018 0.04893722 0.049030513 0.048574653 0.048715007
0.048909567 0.048501033 0.048684366 0.048754226 0.048394099 0.048941787
0.049399152 0.049353484 0.049302425 0.049191304 0.049448509 0.049426496
0.049506281 0.049308423 0.049314998 0.050038129 0.049706317 0.049761236
0.050353888 0.049841523 0.050018936 0.050201859 0.050183766 0.050623827
0.050365269 0.050401691 0.049858939 0.050316978 0.050436519 0.050427858
0.050450314 0.050438806 0.050542556 0.050468292 0.050623048 0.05051586
0.0504888 0.050152961 0.050187051 0.050630011 0.050293025 0.050285209
0.050151423 0.049947854 0.049909297 0.050393511 0.050310563 0.050078347
0.050350014 0.050368425 0.050346062 0.050353475 0.050151419 0.050280679
0.050276868 0.05042547 0.050145663 0.050296146 0.050030004 0.049829204
0.050398506 0.050333604 0.050208345 0.050459258 0.050409015 0.050409015
0.050235972 0.050639316 0.050384764 0.050004199 0.05037751 0.049857013
0.050396025 0.05036312 0.050428834 0.05047803 0.050458021 0.050404597
0.050428171 0.050160635 0.050065093 0.050387911 0.050311003 0.04995222
0.050302524 0.0506455 0.050471425 0.050334621 0.050126195 0.050417308
0.050308999 0.050437436 0.050325893 0.050391685 0.050496615 0.050631415
0.050339092 0.050341215 0.050728206 0.050390281 0.050366033 0.050153576
0.050141264 0.050272945 0.050250869 0.050270233 0.050734855 0.050616909
0.050037492 0.049870051 0.0497499 0.049978789 0.050059322 0.049738608
0.049326587 0.04979251 0.04960449 0.049592704 0.049269635 0.049218092
0.049350634 0.048741188 0.049138263 0.048736628 0.048916776 0.048611812
0.048364848 0.048329093 0.0488781 0.048285607 0.048357274 0.048722003
0.048217449 0.048777431 0.049362443 0.049227607 0.049055502 0.049238652
0.049450032 0.049476076 0.049293797 0.049401354 0.049365174 0.049651284
0.04978893 0.04997883 0.050300669 0.049973365 0.050177712 0.05022848
0.050044253 0.050623398 0.050301194 0.050365008 0.050201967 0.05013267
0.050436698 0.050251033 0.050642211 0.050769251 0.050585672 0.050390601
0.050694171 0.050491862 0.050566886 0.05033363 0.050370082 0.050380591
0.050202101 0.050393231 0.050259519 0.049895536 0.050047178 0.050392661
0.050216097 0.050417069 0.050408278 0.050085165 0.050521113 0.05012894
0.050283328 0.050541129 0.05025341 0.050451025 0.050027456 0.050363794
0.050035436 0.0498222 0.050441362 0.050256617 0.050409243 0.050476026
0.050467044 0.050467044 0.050310496 0.050688177 0.050594166 0.050277315
0.050394304 0.049742803 0.050265666 0.050246142 0.050310042 0.050366659
0.050509069 0.050316483 0.050528113 0.050169021 0.050110098 0.050267
0.050517369 0.050107181 0.05051877 0.050715707 0.050409783 0.050206009
0.050353963 0.050528396 0.050388437 0.05044771 0.05024356 0.050367363
0.050443802 0.050708529 0.050498612 0.050530449 0.050631344 0.050634921
0.050408203 0.050077226 0.050196629 0.050256252 0.050508007 0.050032895
0.05048392 0.050543696 0.050105426 0.050326668 0.049960792 0.049811848
0.050130356 0.049512748 0.049336195 0.049826436 0.049413245 0.049751814
0.049179155 0.049231894 0.049123142 0.048820563 0.048875663 0.048606761
0.048708785 0.048361234 0.048386138 0.048012845 0.048539001 0.048220474
0.048266001 0.048591539 0.048156038 0.048508178 0.049009383 0.049106557
0.048884146 0.049132865 0.049416199 0.049413119 0.049286712 0.049503271
0.049450457 0.049237806 0.049954154 0.050291158 0.050209045 0.050173249
0.050274361 0.050155248 0.05003152 0.050485 0.050251588 0.05041758
0.050658479 0.050076067 0.050365034 0.050067544 0.050753973 0.051006928
0.050641458 0.050412383 0.050525196 0.050422277 0.050677408 0.050542314
0.050606009 0.050185703 0.050257239 0.050552174 0.050347954 0.049993999
0.050164066 0.05029403 0.050125677 0.050741285 0.050361007 0.049779128
0.050692111 0.050138902 0.050462153 0.050557293 0.05025509 0.050455008
0.049906101 0.05025401 0.05022388 0.050192747 0.050357055 0.050225198
0.050457522 0.050339036 0.050406057 0.050406057 0.050473277 0.050458368
0.050643068 0.050498046 0.050409026 0.049952451 0.050191853 0.050122119
0.049985439 0.050315052 0.050436001 0.050239321 0.050622005 0.050269026
0.050263241 0.050308362 0.050645322 0.050383177 0.050627638 0.05049403
0.050326485 0.050148308 0.050711844 0.050639819 0.050575018 0.050368123
0.050148461 0.050474603 0.050351717 0.050513569 0.050619245 0.050749969
0.050435327 0.050847866 0.050561301 0.050270434 0.050365292 0.050303221
0.050515097 0.049910881 0.050356314 0.050332848 0.050168205 0.050490551
0.050216097 0.049878605 0.050121628 0.049577411 0.049580395 0.049656797
0.049221303 0.049749322 0.049052559 0.049246922 0.048714992 0.048890285
0.048741505 0.048399985 0.048353739 0.048291717 0.048411019 0.047909737
0.047998004 0.048311178 0.048404071 0.048313431 0.048234396 0.048246823
0.048551671 0.048786607 0.048798602 0.048913442 0.04928337 0.049368579
0.049451202 0.049505956 0.049468577 0.049209855 0.050019465 0.050462648
0.050149564 0.050346483 0.050224632 0.05011582 0.050062038 0.05033746
0.050336882 0.050497465 0.050979864 0.050083768 0.050259002 0.050173547
0.050722733 0.051075138 0.050687585 0.050585281 0.050356697 0.050373245
0.050635874 0.050757576 0.050718091 0.050179806 0.050353754 0.050605725
0.050389029 0.050204411 0.050306942 0.050294209 0.050156754 0.05071805
0.050303772 0.049767047 0.050650183 0.050354473 0.050470624 0.050429109
0.050294004 0.050516382 0.049988002 0.050180636 0.050479047 0.050469242
0.050143369 0.050333481 0.050333295 0.050151009 0.050330065 0.050330065
0.050580069 0.050203077 0.050446525 0.050589714 0.050483145 0.050291017
0.050077345 0.050118156 0.049768675 0.050230052 0.050315998 0.050303292
0.050732128 0.05048022 0.050315652 0.050419141 0.050648391 0.050595064
0.050641537 0.050305013 0.050279431 0.050370101 0.05095689 0.050603192
0.050790604 0.050247509 0.050133608 0.050636351 0.05043067 0.05021403
0.0505764 0.050809495 0.050335295 0.050925605 0.050741557 0.050628893
0.050594267 0.050338354 0.050339703 0.050139725 0.050418019 0.050027642
0.050191272 0.050409287 0.050450116 0.050036542 0.050034281 0.049857661
0.049725849 0.049394879 0.049329847 0.049521897 0.048851795 0.049126014
0.048452672 0.048948154 0.048735663 0.048226085 0.04806285 0.048128609
0.048204001 0.047982648 0.047589023 0.048258204 0.048417855 0.048071716
0.048406668 0.04810255 0.048217755 0.048292626 0.048669592 0.048858602
0.049005359 0.04933349 0.049483858 0.04943943 0.04954638 0.049581673
0.050033107 0.05045709 0.050184857 0.050385039 0.050082587 0.050131191
0.050099988 0.050224021 0.050570183 0.050452475 0.051020764 0.050238207
0.050221968 0.050574921 0.05056975 0.050881434 0.050703019 0.050752725
0.050393045 0.050501432 0.050592095 0.050838232 0.050599467 0.050265182
0.050443996 0.050542686 0.050401576 0.050462741 0.050464951 0.050375249
0.050327435 0.050446305 0.050309189 0.050096285 0.050395049 0.050546262
0.050329048 0.05037158 0.050429061 0.050563537 0.050313041 0.050198983
0.050550401 0.050429258 0.049977172 0.050437044 0.050170332 0.050085194
0.050352182 0.050352182 0.050496202 0.050115757 0.050280407 0.050428711
0.050580289 0.0505693 0.049963266 0.050307438 0.049993593 0.050092131
0.050295506 0.05038419 0.050644536 0.050777376 0.050242789 0.05042953
0.05060507 0.050736833 0.05057786 0.050399326 0.050354838 0.050673708
0.050987381 0.050493993 0.050808299 0.050252404 0.050207503 0.050744627
0.050676767 0.050049793 0.050531499 0.050763853 0.050512809 0.050836232
0.050742894 0.050865311 0.050690979 0.050419141 0.050300665 0.050540581
0.050534006 0.049801603 0.050187547 0.050289344 0.0506212 0.050109103
0.049933717 0.050051086 0.049691588 0.049330838 0.049635734 0.049189053
0.04881319 0.048962768 0.04854716 0.048908591 0.048569094 0.04808544
0.047923855 0.047844704 0.047896668 0.047938216 0.047378968 0.047911938
0.048125606 0.047913533 0.048431013 0.048013825 0.047943562 0.047916859
0.048471887 0.049049038 0.048741952 0.049107119 0.049332395 0.049474962