# vtk DataFile Version 3.0
axinsert(project(permute(???,2,0,1),0,L2),2)
ASCII
DATASET STRUCTURED_POINTS
DIMENSIONS 128 256 1
ORIGIN 0 0 0
SPACING 1 1 1
POINT_DATA 32768
SCALARS nrrd50122 float
LOOKUP_TABLE default
0.049998261 0.049988102 0.050018281 0.049996197 0.049989045 0.049991012
0.049996 0.049982045 0.050021056 0.050009999 0.050005011 0.049952999
0.049959507 0.050016277 0.049988177 0.049989291 0.050068147 0.050028998
0.050007015 0.050000999 0.049971014 0.049994163 0.050002016 0.049948208
0.050023187 0.050025009 0.050021067 0.049954023 0.04998643 0.050038017
0.049996 0.050016001 0.05003801 0.050000045 0.050018001 0.050011087
0.049964 0.049966019 0.050022092 0.049946029 0.050009694 0.050049055
0.049992047 0.049993005 0.049970023 0.049989328 0.050053045 0.049978022
0.049989022 0.050026022 0.049996998 0.050001062 0.050004002 0.049958002
0.049991019 0.050053317 0.049995113 0.049973223 0.049995005 0.04995808
0.049962264 0.050038416 0.050065055 0.050032128 0.050012067 0.049959157
0.050023578 0.050034113 0.049970999 0.049989998 0.04997709 0.049994111
0.050022028 0.050006118 0.049984999 0.049961016 0.050002068 0.050004039
0.049995005 0.050044023 0.049954142 0.049963526 0.050020047 0.050034553
0.049997047 0.050003719 0.050005037 0.049996186 0.049974099 0.049986668
0.050018001 0.050021101 0.049989004 0.049999308 0.049987018 0.049980346
0.050007053 0.050014056 0.050000999 0.049995095 0.050032049 0.050025031
0.050024018 0.049992293 0.049993008 0.050001264 0.049999043 0.049997374
0.050000072 0.050010215 0.049977001 0.050014004 0.049979009 0.049967274
0.049998004 0.049986999 0.049993217 0.049987022 0.049961094 0.050011046
0.049990006 0.049996112 0.050062019 0.05002803 0.050009999 0.049976096
0.050022263 0.050022263 0.050005998 0.050008018 0.049941011 0.049917135
0.050019067 0.050016109 0.049978007 0.049947146 0.049997028 0.050011564
0.050017085 0.049856335 0.049928315 0.050090153 0.049982052 0.049994376
0.050146028 0.05008439 0.049985025 0.050024442 0.049940001 0.04995928
0.049968071 0.049950708 0.050057001 0.050072361 0.049997006 0.049935579
0.049982999 0.050117251 0.05000601 0.049954109 0.050053213 0.049970169
0.04999141 0.050082307 0.049974218 0.049913153 0.049997207 0.049945474
0.049981028 0.050086435 0.049987175 0.050008595 0.04993302 0.050021801
0.050076999 0.049957693 0.050017007 0.049941104 0.049992923 0.050082054
0.050009262 0.049988162 0.049927 0.050009523 0.04998751 0.050008629
0.049994223 0.049940545 0.049940102 0.050075307 0.050158236 0.049978096
0.049967919 0.049921419 0.050030489 0.050101496 0.049981162 0.050070196
0.049922161 0.049906287 0.050139423 0.050009131 0.049959328 0.049970113
0.049956065 0.050038289 0.050017029 0.050075471 0.049888052 0.049901333
0.049988016 0.050004698 0.050007205 0.050028857 0.050063059 0.050038427
0.049953002 0.049925242 0.050084144 0.050032001 0.049978267 0.049972016
0.049970265 0.049997002 0.050022013 0.050020006 0.049983006 0.049988069
0.050042 0.050067138 0.050101001 0.049957015 0.050046999 0.050012022
0.049983013 0.049965002 0.049957 0.050047196 0.049932018 0.049977146
0.049936999 0.049994193 0.050049119 0.049968034 0.050068099 0.049982004
0.049912043 0.050078038 0.050031103 0.049945198 0.049992088 0.05004707
0.050055053 0.049954005 0.050013069 0.050013069 0.05003402 0.049993023
0.049857128 0.049887016 0.050049137 0.050053 0.049926154 0.049941115
0.049948242 0.050016187 0.050010201 0.049862199 0.04998206 0.050108168
0.049959097 0.04998444 0.050106112 0.050056744 0.049973242 0.050045844
0.049972128 0.049936797 0.049941134 0.050029673 0.050062031 0.050037906
0.0499781 0.049968697 0.0500421 0.050108433 0.050021168 0.049867541
0.050026406 0.049995326 0.049957171 0.05002455 0.050001755 0.04992469
0.049950756 0.050059874 0.049972124 0.049992986 0.049993373 0.050031275
0.04994129 0.050052498 0.050029159 0.049999788 0.050127026 0.049826577
0.049997129 0.050107516 0.049973335 0.050063789 0.049887232 0.049868263
0.049991801 0.050036296 0.049983904 0.050014425 0.049980469 0.050012164
0.050167184 0.0499129 0.049901538 0.050024029 0.050001509 0.050091375
0.050048761 0.05006307 0.049949516 0.049876653 0.050094344 0.050042909
0.04997493 0.050010391 0.049948938 0.050028164 0.05001308 0.050018728
0.049976155 0.04995567 0.049928471 0.049960904 0.050016362 0.050051898
0.050097242 0.050086547 0.04997512 0.049902454 0.050158214 0.049988039
0.049989548 0.050012 0.049948212 0.050046999 0.050020091 0.050052006
0.049986005 0.04998102 0.049986016 0.050044011 0.050089084 0.050013047
0.050079018 0.050019037 0.049955007 0.049963035 0.049893014 0.050043199
0.049992029 0.049924042 0.049971003 0.050066002 0.050080061 0.049968999
0.050061028 0.049992055 0.050045021 0.050053377 0.050021004 0.049970064
0.049843051 0.050033007 0.050088022 0.049959008 0.049955003 0.049955003
0.050034005 0.049945004 0.049863033 0.049904011 0.050035011 0.050023004
0.049872246 0.04992307 0.049945313 0.050009061 0.050020549 0.049932029
0.049968109 0.050049189 0.049916387 0.04997341 0.050080255 0.050023943
0.049980484 0.050076846 0.049970426 0.049941961 0.049978264 0.050021503
0.050012399 0.050025243 0.050031509 0.049946528 0.050064575 0.050074633
0.04998209 0.049881898 0.050081663 0.050031431 0.04992253 0.049954854
0.049971819 0.049919076 0.049962822 0.050108958 0.049974807 0.049978934
0.04997557 0.050012406 0.049928695 0.050057527 0.05003453 0.050045419
0.050178368 0.049876083 0.050001029 0.050034028 0.049948487 0.050027169
0.049870107 0.04985239 0.049971972 0.050006799 0.049970217 0.050039705
0.049980119 0.049954671 0.050164767 0.049938202 0.049925517 0.050107457
0.049995035 0.050045736 0.050038598 0.049943201 0.049998734 0.04992675
0.049959276 0.050071813 0.050038226 0.049984463 0.050006382 0.049988575
0.049955748 0.050033487 0.050071243 0.050029468 0.049954191 0.050004225
0.050004482 0.050071519 0.050116323 0.050095975 0.04997142 0.049901895
0.050205328 0.049970698 0.050028462 0.050069246 0.049957197 0.050074033
0.05005708 0.050074015 0.049988046 0.049975008 0.049950019 0.050007001
0.05006009 0.050079018 0.050056037 0.050008185 0.049985036 0.049971011
0.04988201 0.050037008 0.050043002 0.049934998 0.050017036 0.050059017
0.050044011 0.049966998 0.049988005 0.049963079 0.050167009 0.050005019
0.049939077 0.050040089 0.049872998 0.050020009 0.050100006 0.049938999
0.049961045 0.049961045 0.050007015 0.049918026 0.049902 0.049918
0.049984001 0.049938101 0.049853306 0.04992507 0.049955286 0.049960028
0.050033614 0.049983021 0.049912449 0.049995281 0.049911786 0.050003305
0.050019424 0.049994972 0.049996633 0.050055813 0.04995713 0.049973026
0.050040647 0.049984582 0.049935058 0.050010342 0.050113309 0.049946621
0.050029986 0.05001713 0.049969733 0.049943861 0.050115898 0.050030813
0.049872987 0.049970169 0.049960677 0.049916226 0.049980659 0.050057009
0.049986482 0.050023008 0.049948882 0.049984444 0.049941033 0.05007318
0.050041858 0.05004121 0.050172057 0.049976643 0.050001312 0.049943645
0.04994994 0.049943637 0.049867094 0.049887486 0.049943447 0.049992707
0.049986705 0.050029561 0.049984016 0.049931578 0.050103273 0.049961574
0.049981028 0.050094076 0.049976788 0.04999857 0.050004505 0.049848143
0.050010953 0.05001048 0.049891382 0.050044324 0.050109126 0.04998225
0.050064594 0.049976334 0.049930438 0.050058357 0.050106667 0.050076086
0.04997221 0.050086148 0.049981933 0.050098207 0.050161637 0.050070465
0.049976006 0.049938232 0.05017649 0.049977724 0.050073411 0.050104938
0.050032265 0.050099231 0.050112218 0.050073035 0.049975161 0.049996044
0.049960058 0.049996 0.050041053 0.050047003 0.049994256 0.050019186
0.050065111 0.049982 0.049912047 0.050059039 0.050042007 0.04997601
0.050010037 0.050038002 0.050014999 0.049967006 0.049968999 0.049942013
0.050178006 0.049985066 0.049882021 0.050063144 0.04996701 0.050010011
0.050080009 0.049920999 0.05000703 0.05000703 0.049975 0.049904082
0.049920004 0.049921054 0.049918011 0.049848363 0.049878355 0.049935114
0.049970366 0.049931072 0.050025444 0.049966142 0.049858805 0.049971405
0.049923033 0.050036401 0.049952768 0.049971949 0.050013017 0.049986951
0.049945064 0.050015077 0.050067473 0.049950086 0.049893923 0.049984332
0.050157145 0.04999515 0.04997832 0.049977679 0.050020654 0.05000177
0.050083082 0.050023425 0.04986009 0.050008245 0.049965825 0.049918201
0.049999706 0.049975034 0.049983576 0.050055187 0.049930386 0.049975369
0.049978241 0.05007901 0.050032258 0.050014209 0.050120685 0.050029192
0.05000129 0.049905133 0.049948499 0.049874261 0.049889397 0.049925733
0.049949102 0.049970489 0.049991481 0.050001632 0.049982276 0.049924895
0.050053552 0.049964532 0.049977697 0.050027419 0.049953435 0.049973909
0.050000671 0.049828921 0.049972359 0.05005198 0.04989798 0.050002694
0.050138809 0.050019801 0.050102707 0.049999919 0.04996163 0.050095908
0.050105784 0.050073031 0.04995212 0.050167479 0.050002813 0.050125532
0.050202303 0.050037988 0.04999768 0.050004438 0.050130822 0.049999088
0.05011953 0.050118238 0.050105549 0.050094608 0.050146569 0.050096352
0.049976274 0.050027207 0.050008107 0.050014015 0.050036043 0.04998802
0.049945261 0.050057095 0.050137069 0.050002001 0.049945008 0.050073039
0.05002002 0.050016005 0.049961023 0.050001044 0.050030004 0.049974002
0.049977999 0.049947001 0.05012 0.049988132 0.049894009 0.05005103 0.050028
0.050020006 0.050056014 0.049912009 0.050028007 0.050028007 0.049934004
0.049895186 0.04991103 0.049904257 0.049863134 0.049791578 0.049930368
0.049927209 0.049973503 0.049945217 0.049993347 0.049915429 0.049831878
0.049953565 0.049917135 0.050042767 0.049919225 0.049945969 0.05000557
0.049917277 0.049945623 0.050038304 0.050045401 0.049930811 0.049904626
0.049983539 0.050142404 0.050052952 0.049957693 0.049978808 0.050095536
0.050026905 0.050012376 0.050034977 0.049894143 0.050010275 0.049972281
0.049931284 0.050011944 0.04992117 0.049968347 0.050041337 0.049935859
0.049993142 0.050003361 0.050065048 0.05001463 0.04998634 0.05005005
0.050029341 0.050011229 0.049915232 0.049936973 0.04984241 0.049921196
0.049920958 0.049976807 0.049950462 0.049970046 0.049955018 0.04995336
0.04990774 0.050036106 0.049947985 0.049904063 0.049964957 0.049945772
0.049978245 0.050014224 0.049869213 0.049929786 0.050038878 0.049920425
0.049982674 0.050108727 0.050058134 0.050136033 0.050065264 0.050017029
0.050135612 0.050097268 0.050048839 0.04993359 0.050220646 0.050072718
0.050158758 0.050221998 0.050025489 0.05003896 0.050066505 0.050094161
0.050038997 0.050172668 0.050102167 0.050132919 0.050096001 0.050167795
0.05015067 0.050012309 0.050061282 0.05005911 0.050034061 0.050030053
0.049958065 0.049939118 0.050095029 0.050173018 0.050038006 0.04997002
0.050036002 0.050011024 0.050058998 0.049924016 0.049975015 0.050062016
0.049973 0.049995009 0.04996201 0.050052024 0.050004076 0.049945068
0.050019003 0.050044004 0.050052002 0.050037105 0.049906034 0.050014097
0.050014097 0.049889006 0.049874246 0.049893066 0.049861409 0.049835317
0.049775586 0.049970336 0.049907371 0.04996153 0.0499755 0.049960382
0.049861748 0.04982489 0.049930751 0.049885157 0.050023194 0.049924601
0.049921125 0.04997192 0.049869593 0.049942698 0.050037872 0.050005872
0.049931563 0.049925748 0.050011236 0.050105367 0.050082669 0.049993183
0.049997699 0.050142922 0.050025351 0.049937975 0.050058488 0.049947657
0.049985666 0.049971007 0.049962714 0.050021321 0.049912546 0.049962234
0.049987469 0.049967129 0.050028007 0.049999546 0.05004013 0.049990918
0.049967512 0.050001178 0.050011009 0.05001545 0.049931146 0.049931329
0.049851168 0.049932949 0.049866207 0.050006237 0.0499507 0.049922291
0.049897753 0.049903773 0.049876764 0.050025716 0.049906205 0.049822699
0.049924817 0.049939018 0.050005384 0.050006047 0.049922187 0.049926735
0.050012704 0.049915187 0.049983211 0.050049201 0.050067052 0.050159272
0.050146606 0.050075103 0.050162736 0.050092429 0.050051913 0.04996381
0.050247185 0.050163317 0.050197035 0.05023155 0.050044816 0.050102871
0.050111465 0.050068218 0.050082669 0.050221741 0.050074071 0.050125908
0.050120126 0.050198641 0.050205704 0.050061297 0.050100308 0.050094094
0.050049119 0.050029043 0.049955077 0.049968038 0.050122999 0.050167002
0.05008503 0.049995061 0.049975 0.050015002 0.050099 0.049921017
0.049995005 0.050074145 0.049960006 0.050009094 0.049970016 0.050004113
0.050010018 0.049972083 0.04998501 0.05003202 0.050097045 0.050020169
0.049904086 0.049990173 0.049990173 0.049856007 0.049839158 0.049866103
0.0498074 0.049823411 0.049787484 0.049974307 0.049885597 0.049936466
0.049984895 0.049939562 0.049817074 0.049827971 0.049911942 0.049845174
0.049984429 0.049933858 0.049907494 0.049943019 0.049836762 0.049910646
0.050025631 0.049970057 0.049949426 0.049931668 0.050030351 0.050093699
0.050078254 0.050063975 0.050006036 0.050141983 0.050024319 0.049880937
0.050071198 0.049989872 0.049967647 0.049970962 0.05001349 0.050036866
0.04993223 0.049980447 0.049927685 0.050006144 0.05005819 0.049988873
0.050018195 0.049963109 0.049958531 0.04999024 0.050002575 0.049995221
0.049929038 0.049933355 0.049884055 0.049911801 0.049797554 0.050028004
0.049952213 0.049850538 0.049847808 0.04985676 0.049852613 0.049990404
0.049838994 0.049785938 0.049896255 0.049907003 0.050032549 0.04996464
0.049952362 0.049959179 0.050014205 0.049890637 0.049982894 0.050006829
0.050053753 0.050163109 0.050203998 0.050130788 0.050183088 0.050094906
0.050099995 0.050046016 0.050259244 0.05024685 0.050227359 0.050244167
0.050098989 0.050182853 0.050154455 0.050064132 0.050114222 0.050250754
0.050074983 0.050118539 0.050148871 0.05023136 0.050234623 0.050097264
0.05014034 0.050121076 0.050064135 0.050048035 0.049966041 0.050016005
0.050145011 0.050131001 0.050123017 0.050029043 0.04993701 0.050020013
0.050117008 0.049936023 0.050055031 0.050074298 0.049946055 0.050007261
0.049968023 0.049974237 0.049984001 0.049956065 0.049969044 0.050007045
0.050140128 0.050013147 0.0499091 0.049975172 0.049975172 0.049845021
0.049797036 0.049821153 0.049759295 0.049814414 0.049802393 0.049944367
0.049870804 0.049900498 0.049958333 0.049929939 0.049790535 0.049844116
0.049901206 0.049814321 0.049933601 0.049918231 0.049905077 0.049940307
0.049806003 0.049848873 0.050003249 0.049932618 0.049973343 0.049929097
0.050014369 0.050112747 0.050059043 0.050117332 0.049998425 0.050113574
0.050036032 0.049855262 0.050063282 0.05000665 0.049976062 0.049990073
0.050073404 0.050052691 0.04996324 0.050026041 0.049904112 0.050031934
0.050059795 0.049999274 0.050013389 0.049947165 0.049954385 0.049994264
0.050014388 0.049958918 0.04992095 0.049925044 0.049916212 0.049874693
0.049748834 0.050030418 0.049915049 0.049767975 0.049812861 0.049832806
0.049841169 0.04992025 0.049764764 0.049796462 0.049872972 0.049852397
0.050029777 0.049906507 0.049952101 0.049989842 0.050047498 0.049879506
0.04997335 0.050007891 0.050044775 0.050152775 0.050218277 0.050187472
0.050211355 0.050109092 0.050181825 0.050139397 0.050253216 0.050313648
0.050251789 0.05026786 0.050177105 0.05026608 0.050206594 0.050096221
0.0501449 0.050255682 0.050119888 0.050136238 0.050164513 0.050239176
0.050237559 0.050122172 0.050175291 0.05015805 0.050081071 0.050081015
0.049991004 0.050067011 0.050154053 0.050091013 0.050138999 0.050069023
0.049940072 0.050012067 0.05011202 0.049949042 0.050120041 0.050094288
0.049949154 0.049982373 0.04996004 0.049944282 0.049934 0.049921069
0.049969047 0.049985088 0.050157126 0.050027099 0.049915045 0.049960114
0.049960114 0.04985005 0.049758002 0.049759228 0.049725216 0.04979844
0.049797323 0.049888592 0.049855977 0.049853794 0.049902726 0.049914595
0.049791198 0.049872417 0.049883701 0.049793854 0.049874086 0.049883101
0.049900889 0.049953345 0.049782842 0.049790651 0.049960859 0.049884912
0.049994241 0.049933549 0.049974073 0.050125476 0.050033458 0.050118469
0.049993146 0.050091468 0.050056443 0.049861975 0.050042801 0.050013576
0.050011475 0.050028358 0.050131451 0.05005594 0.049998529 0.050094977
0.049939811 0.050038803 0.050026786 0.0500376 0.050033934 0.049962062
0.049948342 0.049988229 0.050044529 0.049922749 0.049920958 0.049898744
0.049930412 0.049844693 0.049721833 0.049997061 0.04982416 0.049699489
0.049792469 0.049829975 0.049825568 0.049823828 0.049709909 0.049822167
0.04985116 0.04979717 0.049978886 0.049848851 0.049936075 0.049991604
0.050087813 0.049902204 0.049959503 0.050042376 0.050052051 0.050144676
0.050212119 0.050243542 0.050253164 0.050135743 0.05026922 0.050217088
0.050232191 0.05036151 0.050285161 0.050306249 0.050263084 0.0503393
0.050262827 0.050162423 0.05020275 0.050248515 0.050184753 0.050184123
0.050173264 0.05021707 0.050238408 0.050158046 0.050202116 0.050205003
0.050097004 0.050115 0.05003402 0.05010812 0.0501481 0.050070081
0.050131068 0.050103031 0.04997018 0.049982149 0.05009703 0.049956087
0.05016106 0.050132174 0.049972221 0.049946338 0.049944077 0.0499072
0.049900003 0.049889125 0.049975008 0.049972147 0.050139032 0.050057054
0.049918 0.049934052 0.049934052 0.049843099 0.049718011 0.049693357
0.04970023 0.049781557 0.049766343 0.049815036 0.049831189 0.04980047
0.049838111 0.049881555 0.049813978 0.049900129 0.049847648 0.04977512
0.04980718 0.049843721 0.04988208 0.049951494 0.049781825 0.049764268
0.049906109 0.049835779 0.049996432 0.049951162 0.049942996 0.050094698
0.049995869 0.050077509 0.050007802 0.05009371 0.050078433 0.049897116
0.050027795 0.050033461 0.050055817 0.050067995 0.050176922 0.050053816
0.050043877 0.050174251 0.050025877 0.050033141 0.049981955 0.050083816
0.050076932 0.05001495 0.049942642 0.04996511 0.050073996 0.049902845
0.049927164 0.049871802 0.049925484 0.049832985 0.049705625 0.04991325
0.049708199 0.049669709 0.049780428 0.04982413 0.049785051 0.049724013
0.049684294 0.049831506 0.049822539 0.049757976 0.049894985 0.049806438
0.049913615 0.049962446 0.050114345 0.049948625 0.049958508 0.050086036
0.050072886 0.050156992 0.050217036 0.050297979 0.050301034 0.050171036
0.050337844 0.05028002 0.050216019 0.050395764 0.050340042 0.050358914
0.050348673 0.050393101 0.050311837 0.050249357 0.050297599 0.05024929
0.050237499 0.050245076 0.050191116 0.050196007 0.050255131 0.050219011
0.050223 0.050246064 0.050110053 0.050143123 0.050085161 0.050127413
0.050134204 0.050074324 0.050104272 0.05012114 0.050004311 0.049936328
0.050080076 0.049973216 0.050161179 0.050161116 0.05000224 0.049919255
0.049921159 0.049870115 0.049906045 0.049873203 0.049978033 0.049958199
0.050102003 0.05007603 0.049918011 0.049898017 0.049898017 0.049802162
0.049669087 0.049637567 0.049679387 0.049764786 0.049711548 0.049731679
0.049792584 0.049743522 0.049779676 0.049833722 0.049834818 0.049906526
0.049789269 0.049750298 0.049745139 0.049814001 0.049845915 0.049906608
0.04980417 0.049774956 0.049865678 0.049803004 0.049970504 0.049973678
0.049940038 0.050020441 0.049940292 0.050021265 0.050044656 0.050112598
0.050098948 0.049953826 0.050027277 0.050075553 0.050094541 0.050090183
0.050205979 0.050068397 0.050106093 0.050245974 0.050130375 0.050034303
0.049962059 0.050121162 0.050131161 0.050093036 0.049939383 0.049939055
0.050081678 0.049901225 0.049928557 0.049865339 0.049908455 0.049835671
0.049689438 0.049789928 0.049615685 0.049680464 0.04976305 0.049787208
0.0497078 0.04964225 0.049677316 0.049809534 0.049774908 0.049727794
0.049811412 0.04977889 0.049887419 0.049923204 0.050118048 0.049994331
0.049980577 0.050125495 0.050095946 0.050192274 0.050254211 0.050354052
0.050352044 0.050210051 0.050382674 0.050345611 0.050241575 0.050435841
0.050416168 0.050423775 0.050428774 0.050425369 0.050355323 0.050341778
0.050403301 0.050268091 0.050267138 0.050299015 0.050232008 0.050212052
0.050293013 0.050288271 0.050246283 0.050266456 0.050127365 0.050169632
0.050126586 0.050127011 0.050122514 0.050094929 0.050067697 0.050117567
0.050028563 0.049895752 0.050062325 0.050003543 0.05012355 0.050151177
0.050024312 0.049914248 0.049897343 0.049845126 0.049939219 0.049874298
0.049976267 0.049934261 0.050056115 0.050063033 0.04990603 0.049860999
0.049860999 0.049723215 0.049610272 0.049585786 0.04966072 0.049742088
0.049641076 0.049650408 0.049740288 0.049684722 0.04973067 0.049784992
0.049829863 0.049871698 0.049715713 0.049719311 0.049701989 0.049795646
0.049794648 0.049825076 0.049827319 0.049797822 0.049857873 0.049793888
0.049915992 0.049986769 0.049958915 0.04993511 0.04987454 0.049977329
0.050089423 0.050129436 0.050123096 0.050028417 0.050045446 0.05012726
0.050127376 0.050103925 0.050220523 0.050115425 0.05018238 0.05029225
0.050224397 0.050063558 0.049993068 0.050150007 0.050191179 0.050170563
0.04994946 0.049929176 0.050062336 0.049913771 0.049916953 0.04988512
0.049888425 0.049842529 0.049675416 0.04965876 0.049580451 0.049709979
0.049726773 0.049708329 0.049602717 0.049587063 0.049664438 0.049756028
0.049708415 0.04969408 0.049755327 0.04976508 0.049857903 0.049897574
0.050103471 0.05002258 0.050029632 0.050163478 0.050122742 0.05024391
0.05031836 0.050412778 0.050406054 0.050252669 0.0504173 0.050425187
0.050328843 0.050506104 0.050508883 0.050497305 0.050503764 0.050447479
0.050403483 0.050435118 0.050485015 0.050303005 0.050292026 0.050333064
0.050299119 0.050268531 0.050345585 0.050347015 0.050274178 0.050268397
0.05014915 0.050194766 0.050151493 0.050114039 0.050119292 0.050116029
0.050035529 0.050098635 0.050038148 0.049881637 0.050039127 0.050029233
0.050063323 0.050103538 0.050027601 0.049926478 0.049877703 0.049831331
0.049968552 0.04988645 0.049971659 0.049897384 0.05000332 0.050018061
0.04987105 0.049834006 0.049834006 0.049620215 0.049541511 0.049528901
0.049635191 0.049700402 0.049558032 0.049579073 0.049677365 0.049617924
0.049687244 0.049744353 0.04978741 0.0497915 0.049637996 0.049683698
0.049682546 0.049780421 0.049737453 0.049733512 0.049825471 0.049802609
0.049873367 0.049802247 0.049853083 0.049984526 0.049979858 0.049874265
0.049821526 0.049954545 0.050123382 0.050134398 0.050149787 0.050112199
0.050080582 0.050174102 0.050162677 0.050135337 0.050231468 0.050188638
0.050263349 0.050311103 0.050296001 0.050127741 0.050070249 0.050186649
0.0502569 0.050228704 0.049983587 0.04994655 0.050025716 0.049937252
0.049896155 0.049919724 0.049870446 0.049843099 0.049667556 0.049550235
0.049594704 0.049725693 0.049663819 0.049600746 0.049488403 0.049549453
0.049624894 0.049672697 0.049634196 0.049649112 0.049728576 0.049756162
0.049828935 0.049900517 0.050076135 0.05003595 0.05009957 0.050208993
0.050161093 0.050303537 0.050398223 0.05047394 0.050466869 0.050312731
0.050467398 0.050518714 0.050469909 0.050616436 0.050613798 0.050577264
0.050571132 0.050479006 0.050462008 0.050524108 0.05053021 0.050354317
0.050331682 0.050356757 0.050385036 0.050343931 0.050388165 0.050387438
0.050305784 0.050263043 0.050176706 0.050217643 0.050161082 0.050100639
0.050123863 0.0501297 0.050021026 0.050071605 0.050027449 0.049895123
0.050012775 0.050032459 0.050004583 0.050035562 0.050008327 0.04993717
0.049861308 0.049816929 0.04996898 0.049895775 0.049961958 0.049855623
0.049939513 0.049952108 0.049808089 0.049812023 0.049812023 0.049508158
0.049462762 0.049459916 0.049592737 0.049632758 0.049470272 0.049516674
0.049600787 0.049539171 0.049641326 0.049708989 0.049708776 0.049679674
0.049565811 0.049650066 0.049677581 0.049757652 0.049677409 0.049662147
0.049792685 0.049772888 0.049882714 0.04981574 0.049804751 0.049965337
0.049986519 0.049852263 0.049805451 0.049952246 0.050134182 0.050129574
0.050174139 0.050193381 0.050130077 0.050208412 0.050208349 0.050201833
0.050254155 0.050267104 0.050340645 0.050318524 0.050348181 0.050226446
0.050172936 0.0502421 0.050329745 0.050271478 0.050053604 0.049998216
0.049996819 0.049964495 0.049875155 0.049953885 0.049859509 0.049833033
0.049666774 0.049481139 0.049617875 0.049702868 0.049577154 0.049489599
0.049389623 0.049508624 0.049553685 0.049564201 0.049564093 0.049599674
0.049716633 0.049749382 0.049807984 0.049926419 0.050049253 0.050047502
0.050179303 0.050268222 0.05022512 0.050373469 0.050489649 0.05053363
0.050534368 0.050402362 0.050549012 0.050615881 0.050637893 0.050758418
0.050727203 0.050663009 0.050633006 0.05053727 0.050533295 0.050610997
0.050561156 0.050419539 0.050392326 0.050393756 0.05046938 0.050411519
0.050407846 0.050409764 0.050338294 0.050261579 0.050206337 0.05023234
0.050156564 0.050093934 0.050131537 0.050132021 0.050030414 0.050048377
0.049997792 0.049916223 0.049983114 0.050014261 0.049962401 0.049965434
0.049972687 0.049928546 0.049837168 0.049788963 0.049939461 0.049886379
0.049939051 0.049817935 0.049857605 0.049885176 0.04972114 0.049786028
0.049786028 0.049391102 0.049371023 0.049381934 0.049524318 0.049542286
0.049381521 0.049455404 0.049505416 0.049451672 0.049585506 0.04966417
0.049608 0.049560018 0.049501654 0.04961545 0.049668022 0.049715027
0.049620438 0.049619779 0.049738806 0.049711656 0.049857754 0.04981824
0.049781904 0.049937628 0.049971331 0.04986304 0.049833722 0.049968179
0.050120406 0.050121043 0.050195478 0.050257891 0.050188139 0.050242383
0.050263885 0.050296839 0.05030328 0.050336327 0.050411645 0.050338592
0.050391901 0.050344378 0.050286535 0.050320037 0.050413214 0.050312679
0.050156768 0.050082296 0.049999993 0.049995564 0.049863178 0.049979661
0.049861647 0.049814444 0.049665004 0.049451675 0.049611263 0.049634375
0.049473565 0.049396716 0.049317434 0.049443889 0.049457643 0.04944047
0.049495708 0.049552932 0.049703091 0.04974395 0.049791597 0.049962871
0.05003665 0.050071798 0.05025987 0.050341498 0.050322026 0.05046235
0.050593734 0.050594263 0.050609495 0.050533891 0.050660565 0.0507144
0.050802916 0.050908033 0.050846007 0.050755341 0.050701242 0.050626148
0.050615288 0.050696556 0.050608829 0.050499018 0.050467756 0.050461262
0.050541148 0.050461169 0.05041473 0.050421394 0.050369959 0.050268322
0.050234288 0.050236013 0.050142135 0.05010014 0.050140481 0.050123211
0.050050791 0.050032657 0.049957216 0.049922004 0.049948912 0.049985547
0.049939752 0.049896833 0.049926605 0.04989142 0.049796242 0.049741209
0.049893029 0.049844265 0.049890097 0.049781218 0.049763553 0.049829297
0.049623165 0.049745005 0.049745005 0.049266092 0.049261272 0.049296118
0.049425885 0.049442083 0.049290597 0.049386617 0.049396198 0.04936561
0.04951252 0.049594149 0.04950171 0.049454454 0.049440973 0.049569342
0.049629968 0.049652141 0.049566377 0.04959422 0.049682833 0.049637452
0.04979175 0.049805101 0.049780447 0.049911626 0.049941003 0.049891319
0.049897585 0.049997058 0.050093625 0.050115854 0.050214332 0.050304703
0.05024587 0.050290015 0.050327163 0.050394349 0.050379507 0.050401039
0.050484266 0.050391629 0.050440338 0.050463494 0.050407376 0.050417189
0.050506711 0.05036607 0.050276492 0.05019597 0.050054621 0.050034694
0.04986836 0.049999293 0.049883869 0.049792692 0.049655292 0.04945318
0.049561027 0.049532861 0.049361881 0.04932458 0.04927022 0.049349397
0.049347598 0.049314719 0.049428713 0.049514234 0.049677931 0.049735911
0.049771801 0.049998116 0.050051119 0.050113548 0.050338391 0.050426997
0.050449904 0.050576612 0.050713774 0.050661258 0.050701272 0.050700568
0.05079437 0.050819494 0.050953194 0.05104005 0.050965074 0.050852939
0.050787859 0.050742473 0.050704915 0.050786618 0.050692257 0.050585687
0.050553959 0.050557967 0.05059294 0.050503623 0.050430994 0.050428808
0.050396122 0.050283585 0.050252665 0.050228916 0.050121985 0.050116729
0.050147697 0.050100688 0.050061326 0.050020382 0.049917474 0.0499046
0.049904216 0.049951285 0.049920347 0.049828146 0.049875807 0.049825344
0.0497365 0.049676452 0.049845751 0.049773298 0.049808323 0.049725417
0.049675472 0.049782503 0.049526121 0.049681015 0.049681015 0.049130153
0.049134362 0.049201503 0.049304362 0.049336176 0.049189638 0.049301516
0.049280271 0.049289122 0.049419567 0.049494077 0.049406528 0.049375158
0.049370866 0.049492214 0.049553663 0.049571048 0.049513981 0.049564924
0.049636815 0.04956878 0.049698837 0.049773607 0.049786188 0.049893215
0.049903564 0.049920671 0.049977321 0.050031397 0.050068121 0.050120123
0.050235949 0.050338708 0.050299015 0.050357036 0.050399479 0.05047106
0.050471812 0.050473627 0.050567269 0.050478894 0.05050683 0.050573938
0.050539605 0.05052948 0.0506083 0.050433617 0.050393045 0.050332263
0.050165925 0.0500971 0.04989972 0.050019946 0.049923152 0.049769126
0.04962869 0.049469851 0.049481191 0.049419928 0.049248006 0.049259629
0.049223319 0.049230114 0.049225505 0.049199153 0.049360126 0.04947567
0.049638536 0.049719393 0.049745258 0.050024897 0.05008984 0.050169952
0.050423156 0.050525803 0.050603889 0.050716318 0.050846923 0.05075068
0.050823808 0.050890487 0.05094355 0.050947051 0.051093034 0.051139425
0.051083561 0.05096288 0.050897229 0.050875437 0.050804421 0.050885487
0.050810788 0.050675336 0.050645407 0.050672598 0.050629575 0.050557084
0.050477717 0.050438192 0.05041403 0.050299574 0.050260533 0.050215375
0.050103381 0.0501392 0.050151139 0.050071772 0.050049335 0.049999069
0.049886469 0.049872302 0.049842376 0.049899593 0.049881864 0.049759153
0.049823981 0.049740016 0.049666893 0.049599655 0.049800687 0.049686275
0.049691878 0.049637549 0.04960851 0.049726747 0.049435075 0.049596094
0.049596094 0.0489893 0.048995208 0.049090035 0.049166575 0.049215399
0.049070768 0.049194843 0.049166687 0.049222022 0.049307074 0.049373683
0.049327426 0.049319483 0.049283128 0.049375076 0.049442712 0.049475614
0.049452852 0.049518432 0.049604647 0.049513705 0.049602613 0.049729079
0.049786262 0.049879748 0.049865808 0.049939722 0.050052866 0.050066158
0.05005483 0.050138835 0.050260864 0.050366681 0.050349087 0.050437715
0.050483152 0.05052647 0.050563201 0.050560549 0.050662227 0.050593477
0.050602503 0.050673675 0.050680835 0.050659016 0.050717749 0.050517295
0.050498001 0.050485756 0.050327625 0.050198797 0.049967024 0.05004362
0.049971342 0.049742833 0.049590018 0.049490586 0.049398545 0.049321428
0.049139865 0.049185712 0.049147688 0.049101904 0.049096376 0.049096536
0.049296714 0.04943122 0.049580786 0.049685612 0.049719915 0.050046839
0.050147519 0.050241884 0.050521538 0.05064081 0.05077916 0.050880343