# vtk DataFile Version 3.0
axinsert(project(permute(???,2,0,1),0,L2),2)
ASCII
DATASET STRUCTURED_POINTS
DIMENSIONS 128 256 1
ORIGIN 0 0 0
SPACING 1 1 1
POINT_DATA 32768
SCALARS nrrd42018 float
LOOKUP_TABLE default
0.049970042 0.050022166 0.050066017 0.049992044 0.050034042 0.049993318
0.050000243 0.050017294 0.049974017 0.049988013 0.049995013 0.050013002
0.050012 0.050005998 0.049974069 0.050012078 0.050028998 0.050018009
0.050011002 0.049950127 0.049980145 0.050011005 0.049961019 0.050001431
0.050017003 0.050006077 0.050025012 0.050017022 0.049988028 0.04998203
0.049995169 0.049995016 0.050018188 0.050019067 0.049989056 0.049974047
0.049990006 0.050027009 0.050037067 0.049994003 0.04995 0.049994048
0.05002401 0.049947057 0.049983371 0.050044093 0.050028004 0.050001096
0.049988046 0.050006244 0.049973 0.050017335 0.050035 0.050004162
0.049970001 0.049978133 0.04999407 0.050027221 0.049977012 0.049984511
0.050035007 0.050002057 0.050015066 0.050002001 0.050017003 0.05001701
0.049943004 0.049915574 0.050027631 0.050051007 0.049992163 0.050009076
0.049998064 0.050028089 0.050052017 0.049987081 0.049974006 0.05000006
0.050004005 0.050014 0.049956016 0.049992051 0.050046053 0.050006121
0.049994137 0.050028067 0.049987011 0.049961999 0.050011091 0.049979094
0.049948115 0.050053 0.049981017 0.049989019 0.049990036 0.050040025
0.05002502 0.049990077 0.049972031 0.050001003 0.049986001 0.049968164
0.050007276 0.049994223 0.049984131 0.050042111 0.050010011 0.049983259
0.050006069 0.049965113 0.050012242 0.049989 0.049986221 0.050013036
0.050028197 0.049984004 0.049999427 0.05004403 0.050035086 0.049963318
0.049980331 0.05002002 0.05000703 0.049990002 0.050003011 0.049993008
0.050015002 0.050015002 0.049992036 0.050071672 0.050025143 0.049961019
0.050078012 0.049936011 0.049984075 0.050059028 0.049956053 0.049998045
0.049991 0.050024036 0.049961999 0.049936287 0.049949151 0.05002524
0.050080284 0.050012223 0.05001045 0.049949396 0.049906038 0.050010722
0.050000086 0.049958069 0.050002433 0.050053507 0.050007153 0.04994661
0.050032035 0.049946323 0.049962893 0.050077513 0.050070245 0.049981285
0.049964655 0.050009314 0.050009176 0.050020155 0.050037388 0.050015323
0.050010316 0.04995 0.049936678 0.049982458 0.049964018 0.050058454
0.050017092 0.049928255 0.049979463 0.050086875 0.049973264 0.049989488
0.050025709 0.050005186 0.050013565 0.049979486 0.050010387 0.050062269
0.049948249 0.049961656 0.050067257 0.050089203 0.050076 0.049945436
0.049968354 0.049960852 0.049901631 0.04991046 0.050041128 0.050079618
0.049986526 0.050000489 0.050037585 0.050067391 0.050082605 0.049975526
0.049933452 0.050013378 0.050013263 0.0499865 0.049994569 0.049952
0.050063927 0.050007161 0.049986813 0.050048143 0.050033793 0.049929012
0.050062392 0.049966037 0.049972203 0.050040185 0.049979765 0.049959242
0.049963765 0.050156213 0.050081216 0.049927261 0.04996036 0.049975291
0.049911216 0.049869999 0.049979366 0.050052017 0.050006054 0.050090034
0.050067998 0.04998 0.050009999 0.049889002 0.050021198 0.050032038
0.049983095 0.049998119 0.050003152 0.049970001 0.049993157 0.050106049
0.050061144 0.049947016 0.049948115 0.050030999 0.049979225 0.050000027
0.050076041 0.050000999 0.050009001 0.050009001 0.050099045 0.050070733
0.049912039 0.04989028 0.04996904 0.049922027 0.049912114 0.050047331
0.049986295 0.049999353 0.050002355 0.049976379 0.049913719 0.049896542
0.049973719 0.049994439 0.050066259 0.050014436 0.049980275 0.050046556
0.049925476 0.049996387 0.050076481 0.049912296 0.0499328 0.05010077
0.049985487 0.049846727 0.050033875 0.049965248 0.049985684 0.050118957
0.050062649 0.049953956 0.049977571 0.050057784 0.050045513 0.049966685
0.049948901 0.05003614 0.050127845 0.049939565 0.049835816 0.050090868
0.050008491 0.050020669 0.049941443 0.049893241 0.050031237 0.050061792
0.049994875 0.04994778 0.049933184 0.049999405 0.05009155 0.04999296
0.050021674 0.050062228 0.04994154 0.049988341 0.05000332 0.050142426
0.050114114 0.049872242 0.049946733 0.049920045 0.049935725 0.050016761
0.05001517 0.049990062 0.050033078 0.049999475 0.050032951 0.050019655
0.050032075 0.050029892 0.049978077 0.050070133 0.050001197 0.049909167
0.050118923 0.049971368 0.049973328 0.050025761 0.049986094 0.050032761
0.050081108 0.05000842 0.050130408 0.050041027 0.049983107 0.049931213
0.050028712 0.049980011 0.049961582 0.050144002 0.050036952 0.049964011
0.050012399 0.04999603 0.049860295 0.049884006 0.049983084 0.050125048
0.050024021 0.050043005 0.050039005 0.05001004 0.050020002 0.049876999
0.050015002 0.050051998 0.050014004 0.049968015 0.049943015 0.050016005
0.050070029 0.05006415 0.049979001 0.049984004 0.04995 0.04996901
0.049959086 0.05006301 0.050099004 0.050013021 0.050013009 0.050013009
0.05017205 0.050055008 0.049890999 0.049835004 0.049869061 0.049905185
0.049854156 0.049970321 0.04997671 0.049973644 0.050004721 0.049941722
0.049923986 0.049931563 0.049960721 0.049941733 0.050061472 0.050005853
0.049985088 0.050089762 0.049951561 0.04999087 0.050069686 0.049886152
0.049881995 0.050111536 0.050023381 0.049866084 0.049967241 0.049992125
0.049996924 0.050101273 0.050060242 0.049985096 0.04999597 0.050039846
0.050020318 0.049965326 0.049952332 0.050022848 0.050114598 0.049955335
0.049882378 0.050064337 0.050019998 0.050031397 0.049918827 0.049973682
0.050056696 0.04997056 0.049982723 0.049948581 0.04992881 0.049949311
0.050087806 0.049971625 0.049979024 0.050073527 0.049938172 0.049968652
0.049936641 0.050121933 0.050111372 0.04985857 0.049978383 0.04997215
0.049977388 0.050016373 0.049978353 0.049956035 0.050053965 0.050016109
0.050024793 0.049959935 0.050044619 0.050088312 0.050042681 0.050114065
0.050009057 0.049902767 0.050150581 0.050038569 0.049941503 0.050053518
0.049985282 0.050043155 0.050110996 0.050082114 0.050196461 0.050082713
0.049888335 0.04988914 0.050068468 0.050004616 0.049995337 0.050107114
0.050020505 0.05002825 0.05003728 0.050001159 0.049901329 0.049942002
0.050028007 0.050168019 0.049966011 0.050022032 0.050005008 0.049977072
0.050052024 0.049903005 0.049995013 0.050037023 0.050036006 0.049985006
0.04993603 0.050064001 0.050124116 0.050068006 0.049912143 0.049950011
0.049949005 0.049927019 0.049984001 0.050099 0.050067 0.050019015
0.050026018 0.050026018 0.050170001 0.049998265 0.049873136 0.0498165
0.049850203 0.049871504 0.049873468 0.049895354 0.049929943 0.049981758
0.049991686 0.049929056 0.049942844 0.049951874 0.049927812 0.049893241
0.050039425 0.049957715 0.049992323 0.05009659 0.049913749 0.049977392
0.050038066 0.049881306 0.049884122 0.050061565 0.050061591 0.049980246
0.049905319 0.050011341 0.049968738 0.050073963 0.050079506 0.050002944
0.05000519 0.050007686 0.049981821 0.049981505 0.050002452 0.050008375
0.050074771 0.049974281 0.049957562 0.050009862 0.050009422 0.050038077
0.049922608 0.050063856 0.050045293 0.049920164 0.049982961 0.049948175
0.049973473 0.049891315 0.05004821 0.049972091 0.049921352 0.050053157
0.049940277 0.049940363 0.049903128 0.050075948 0.050081417 0.049877197
0.04998371 0.050003223 0.050003272 0.050020382 0.049958453 0.04995263
0.050031543 0.05002467 0.050052412 0.049961649 0.05007853 0.050116494
0.050100129 0.050130177 0.050037812 0.049959358 0.050128117 0.050113678
0.049970154 0.050067488 0.050032023 0.050077397 0.050086286 0.050117057
0.050187048 0.05008873 0.0498932 0.049910869 0.050105605 0.05002813
0.05008243 0.050113305 0.049982265 0.050035629 0.050037295 0.049975526
0.049985413 0.050028082 0.050041012 0.050176084 0.049932022 0.05003012
0.050018009 0.049929064 0.050084051 0.049964003 0.049977034 0.050048035
0.050032079 0.050001074 0.04995608 0.050076 0.050103076 0.05008205
0.049914066 0.049891002 0.049951006 0.04993201 0.050018001 0.050076
0.050053027 0.050036002 0.050019003 0.050019003 0.050099108 0.04992339
0.049835537 0.04980984 0.049871564 0.049826682 0.04989893 0.049870688
0.049898051 0.050010961 0.049955882 0.04991658 0.049947083 0.049944725
0.049895279 0.049859256 0.049989674 0.049917232 0.049991403 0.050055087
0.049861573 0.049963847 0.049986061 0.049892459 0.0499507 0.04999366
0.05006044 0.050066065 0.049870223 0.050054606 0.049950983 0.050016679
0.050069325 0.050016791 0.050018955 0.049981419 0.049956281 0.050006021
0.050039977 0.049996581 0.050047461 0.049984291 0.050004225 0.049991071
0.05000253 0.050025344 0.049940161 0.050103795 0.050032169 0.049915094
0.049983155 0.049912456 0.05001124 0.049896799 0.050010685 0.049969628
0.049888082 0.05001007 0.049933583 0.049913719 0.049902648 0.050037719
0.050038055 0.049903464 0.049979281 0.050001614 0.049971867 0.05001644
0.049967721 0.049957771 0.049999241 0.050031852 0.050095722 0.0500236
0.05011538 0.050125573 0.050136205 0.05015067 0.050073456 0.050048556
0.050112024 0.050150558 0.050044708 0.0500741 0.050114449 0.050134365
0.050033469 0.050120164 0.050125383 0.050073363 0.049979605 0.049994282
0.050162926 0.050047308 0.050152674 0.050154716 0.04993733 0.050018974
0.050059456 0.049965668 0.050041296 0.050105307 0.050028037 0.050153363
0.049959119 0.050032154 0.050043125 0.049927093 0.050112057 0.050034013
0.049953021 0.050073054 0.050002061 0.049990173 0.050002024 0.050074007
0.050056007 0.050072085 0.049953002 0.049842004 0.049947068 0.049958009
0.050035004 0.050038002 0.050078053 0.050055031 0.050020035 0.050020035
0.050000314 0.049863253 0.049789738 0.049804602 0.049886826 0.049795624
0.049878057 0.049873143 0.0498841 0.050007403 0.049906522 0.049897213
0.049923994 0.049929973 0.049865272 0.049849659 0.049938317 0.049888525
0.049997844 0.04999749 0.04984707 0.049939532 0.049923953 0.049914315
0.05001926 0.049937103 0.050026532 0.050076183 0.049871068 0.050111808
0.049974807 0.049955018 0.050013099 0.05002895 0.050035819 0.049983677
0.049943395 0.050007105 0.050034892 0.049976677 0.050031494 0.049997211
0.050044108 0.049993955 0.049992103 0.050003603 0.049960747 0.050072964
0.050031796 0.049927119 0.049963657 0.049886156 0.050020926 0.049940147
0.049985748 0.049957979 0.049891446 0.049967598 0.049907122 0.049883924
0.049907558 0.050007138 0.049987022 0.049924295 0.049978778 0.049980573
0.04991645 0.049988911 0.050002851 0.049981255 0.049988139 0.050052281
0.050127283 0.050092369 0.050138704 0.050134201 0.050153393 0.050187837
0.050104007 0.050142642 0.050123069 0.050151132 0.050141227 0.050094809
0.050189164 0.050173908 0.050014649 0.050127584 0.050093066 0.050070662
0.050081778 0.050115503 0.05022243 0.050073598 0.050173968 0.050194483
0.049936656 0.050001044 0.05009469 0.050012749 0.050070185 0.050136521
0.050027117 0.050123457 0.050008215 0.050019152 0.050052237 0.049961139
0.050145064 0.050089043 0.049933001 0.050081067 0.049968001 0.049971193
0.050055999 0.050064031 0.050035015 0.050039046 0.049992125 0.049828004
0.049943063 0.049993001 0.050031003 0.050025012 0.050126001 0.050053038
0.05002103 0.05002103 0.049907263 0.049824182 0.049755543 0.049788356
0.049874853 0.049784575 0.04981292 0.049864493 0.049860206 0.049952026
0.049863338 0.049858741 0.049875382 0.04991708 0.049839597 0.049859818
0.049922407 0.04986693 0.049994711 0.049953554 0.049859706 0.049897384
0.049871054 0.049938731 0.050035413 0.049908053 0.049985915 0.050040368
0.049897376 0.050138444 0.050018258 0.049923413 0.049952947 0.050030936
0.050044004 0.050010189 0.049934115 0.049973618 0.050012484 0.049960475
0.050023738 0.0500108 0.050083358 0.049995817 0.049968377 0.049993824
0.04997858 0.049997237 0.050030701 0.049930364 0.049930383 0.049905755
0.05001219 0.049973413 0.049963474 0.049943719 0.049910579 0.049929254
0.049870472 0.04985192 0.049896039 0.049980965 0.049940459 0.049925771
0.049971253 0.049941033 0.049881931 0.049966339 0.050048463 0.050036255
0.050005399 0.050069086 0.050148297 0.050142359 0.050136112 0.050145034
0.050162572 0.050227731 0.050136916 0.05022534 0.050143812 0.050146792
0.050233521 0.05015054 0.050240174 0.050182845 0.05006098 0.050169349
0.050124247 0.050096836 0.050164368 0.050230827 0.050265215 0.050115176
0.050164431 0.050213296 0.05000326 0.050007999 0.050112877 0.050086915
0.050089259 0.050131712 0.050048277 0.050105441 0.050057326 0.050017137
0.050054222 0.050001111 0.050167058 0.050122097 0.049931012 0.050070062
0.049949035 0.049969099 0.050087009 0.050044041 0.050047059 0.049997009
0.050007224 0.049874004 0.049955003 0.050022006 0.050012998 0.050042003
0.050173033 0.050015014 0.050015006 0.050015006 0.049832109 0.04979419
0.0497353 0.049745336 0.049839806 0.049783677 0.049730856 0.049829755
0.049820494 0.049870607 0.049835905 0.049797159 0.049814425 0.049910661
0.049815681 0.049865462 0.049936809 0.049858201 0.049959891 0.049921785
0.049860749 0.04984913 0.049842231 0.04995184 0.050006174 0.04990831
0.049951982 0.049993485 0.049925625 0.050119642 0.050047811 0.049917251
0.049930196 0.050022405 0.050030585 0.05003646 0.049926996 0.049930688
0.049997494 0.049965352 0.050021917 0.050018404 0.0501009 0.049998429
0.049943913 0.05000037 0.049991697 0.049928855 0.050024945 0.049908645
0.049897648 0.049948692 0.049990185 0.049984001 0.049929291 0.049916234
0.049917378 0.049891911 0.049841534 0.049827375 0.049867656 0.049962185
0.049920257 0.049902808 0.049939264 0.049895678 0.049878713 0.049976394
0.050085682 0.050103985 0.050038986 0.050061487 0.050168071 0.050182756
0.050125118 0.050159045 0.050178174 0.050261196 0.050176576 0.050288405
0.050163839 0.050163515 0.050302081 0.050230194 0.050278749 0.05019765
0.050159607 0.05024717 0.05019486 0.050137773 0.050242722 0.050308369
0.050289322 0.050167918 0.050162192 0.050218735 0.050105974 0.050055072
0.050110992 0.050145093 0.050110508 0.05012586 0.050090466 0.050102424
0.050107397 0.050046127 0.050066147 0.050033059 0.050152041 0.050134197
0.049953029 0.050053056 0.049951073 0.049995027 0.050092001 0.050015025
0.050071046 0.049966 0.050008126 0.049958002 0.049981017 0.05003003
0.049986016 0.050069999 0.050191067 0.049965002 0.050011002 0.050011002
0.049774032 0.049758177 0.049707219 0.049681444 0.049795773 0.049776889
0.049654994 0.049769901 0.049770962 0.049797952 0.049815238 0.049731523
0.049757633 0.04989887 0.049787235 0.049847931 0.049946107 0.049859196
0.049897268 0.049896408 0.049841113 0.049810406 0.049832292 0.049943674
0.049964052 0.049923573 0.049930718 0.049950313 0.049943294 0.050078884
0.050046027 0.049910747 0.049949646 0.050013449 0.049997974 0.050043192
0.049932361 0.049902931 0.049988188 0.049991436 0.05002388 0.050016385
0.050086182 0.050004616 0.049928222 0.050014127 0.050001815 0.049906671
0.050034124 0.049873631 0.049877875 0.049975932 0.049954683 0.049976863
0.049877718 0.049864072 0.04989206 0.049855415 0.049823251 0.049818676
0.049833715 0.049934659 0.049927346 0.049863536 0.049885064 0.04987137
0.049896821 0.050007261 0.050097525 0.050140388 0.050066441 0.050041553
0.05018343 0.050221331 0.050138697 0.050182659 0.050206836 0.050287824
0.05021929 0.050331745 0.0502 0.050214175 0.050342124 0.050308775
0.050315559 0.05025113 0.05028265 0.050338656 0.05026656 0.050182249
0.050339233 0.050346132 0.050307557 0.050225582 0.050185092 0.050233774
0.0502025 0.05013527 0.050111089 0.050174117 0.050131794 0.050135877
0.050141592 0.050117407 0.050155379 0.050094154 0.050091106 0.050058044
0.050103039 0.050132293 0.049996041 0.050037064 0.049976069 0.050041005
0.050087001 0.049989007 0.050084006 0.049956005 0.050021015 0.050031018
0.050001033 0.050023034 0.049955018 0.050088 0.050178032 0.049933009
0.050013002 0.050013002 0.049728021 0.049706135 0.049656268 0.049617525
0.049750749 0.04974708 0.049595345 0.049698912 0.049718473 0.049741983
0.049789593 0.049684759 0.049709432 0.04986801 0.049746655 0.049807426
0.049922965 0.049850907 0.049832754 0.049873065 0.049812682 0.049787391
0.049829323 0.049914449 0.049920753 0.049927663 0.049926065 0.049912669
0.049951311 0.050038822 0.050017111 0.049895637 0.04999179 0.050011806
0.049956828 0.050025821 0.049946096 0.049899161 0.049978063 0.050027519
0.050025687 0.050010551 0.050050892 0.050009448 0.049924031 0.050026391
0.050012566 0.049926955 0.05006244 0.049851447 0.049874078 0.049967092
0.04990958 0.049949393 0.04981292 0.049794059 0.049841739 0.049823489
0.049805846 0.049819957 0.049805246 0.049880896 0.049935572 0.049824603
0.049831197 0.049880128 0.049914371 0.050022572 0.050084651 0.050119273
0.050079182 0.050042618 0.050183196 0.050252546 0.050191108 0.050225254
0.050249934 0.050315127 0.050260995 0.050368853 0.050276458 0.05030068
0.050367665 0.05037747 0.05035495 0.050338328 0.050409649 0.05042281
0.0503278 0.050230626 0.050448015 0.050363276 0.050335605 0.05029016
0.050235767 0.050272729 0.050277669 0.050226461 0.050134208 0.050188988
0.050152954 0.050159749 0.050188638 0.050149385 0.050187338 0.050136246
0.050123125 0.050076071 0.050047055 0.050132293 0.050045036 0.050032068
0.050010033 0.050087005 0.050085001 0.049979005 0.050078001 0.049961019
0.050064005 0.050059039 0.049995013 0.050020013 0.049935017 0.050086003
0.050153002 0.049929008 0.050016005 0.050016005 0.049687028 0.049640123
0.04959435 0.049570516 0.049696706 0.049685255 0.049549807 0.04963389
0.04966788 0.049691845 0.049754016 0.049662821 0.049661476 0.049812261
0.049697392 0.049764886 0.049860556 0.049818601 0.049787238 0.049847208
0.049784571 0.04977769 0.049832769 0.049873665 0.049871575 0.049908407
0.049941871 0.049888775 0.049945418 0.049999628 0.049980443 0.049886387
0.05002835 0.050017126 0.049916286 0.049998961 0.049962625 0.049910247
0.049973097 0.050052121 0.050025586 0.050013345 0.050013177 0.050008044
0.049931411 0.050038353 0.050021794 0.049960054 0.050090473 0.049860291
0.049881674 0.049924646 0.049861327 0.049893975 0.049752127 0.049731236
0.049783207 0.049789652 0.049782559 0.049810767 0.049779989 0.049802128
0.049917575 0.049796052 0.049792901 0.049900766 0.049916405 0.050004836
0.050058909 0.050052613 0.0500778 0.050078917 0.050166447 0.050267681
0.050273206 0.050283782 0.0503118 0.050352111 0.050302789 0.050416142
0.050388049 0.050410025 0.050396357 0.050451212 0.050406821 0.050439041
0.050525934 0.050489876 0.050383534 0.050292607 0.050540898 0.050381836
0.050386209 0.05036585 0.050308097 0.050331865 0.050341684 0.05030762
0.050179377 0.050210908 0.050175983 0.050188601 0.050222632 0.050184369
0.050195377 0.050166398 0.050162189 0.050094116 0.050017089 0.050143175
0.050087042 0.050041046 0.050040007 0.050110009 0.050087001 0.049985003
0.050058004 0.049969032 0.050124008 0.05005002 0.049966998 0.050034001
0.049941007 0.050067008 0.050129998 0.049938004 0.050019 0.050019
0.049637035 0.049571186 0.049540386 0.04953853 0.049623709 0.049590517
0.049517233 0.049582951 0.049624182 0.049640756 0.049709368 0.049646895
0.049603041 0.049736686 0.04964745 0.04973435 0.049776319 0.049762622
0.049757686 0.049805906 0.049755901 0.049774591 0.049838856 0.049827717
0.049812943 0.049869765 0.049964812 0.049886093 0.049925514 0.049957521
0.049958762 0.049898185 0.050042547 0.050022356 0.049888626 0.049978334
0.049974348 0.049925853 0.049980622 0.050052021 0.050021354 0.05003038
0.049989406 0.050003324 0.049952388 0.050049048 0.050026737 0.049981046
0.050095126 0.049893919 0.04989453 0.04986833 0.049820356 0.049816441
0.04970701 0.049688675 0.049734131 0.04974848 0.049746908 0.049775463
0.049746335 0.04971702 0.049864326 0.049771201 0.049765006 0.049897261
0.04989823 0.049962275 0.050031066 0.049981304 0.050064407 0.050135117
0.050151322 0.050270308 0.05035539 0.050350852 0.050390232 0.050406653
0.05035631 0.050481997 0.050509844 0.050519504 0.050437506 0.050543681
0.050480649 0.050540902 0.050631475 0.05054111 0.050445329 0.050376285
0.050600689 0.050415542 0.050461326 0.050446622 0.050394259 0.050398283
0.050408799 0.050376862 0.050235584 0.050247993 0.050210956 0.050219517
0.050243605 0.050206371 0.050181478 0.050192501 0.050215244 0.050119128
0.050024092 0.050160054 0.050115045 0.050068013 0.050051998 0.050105013
0.050092004 0.050001003 0.050037999 0.049976021 0.050164003 0.050030001
0.049940001 0.050056018 0.049972005 0.050050013 0.050108001 0.049943998
0.050023999 0.050023999 0.049571041 0.04950434 0.049499396 0.049503688
0.04953583 0.049481936 0.049498502 0.049542189 0.049587417 0.049592938
0.049656518 0.049613275 0.049534969 0.049657285 0.049599536 0.049713984
0.049692448 0.049696054 0.049732056 0.049742565 0.049721364 0.04977354
0.049837451 0.049783297 0.0497577 0.049830966 0.04997839 0.049900021
0.049898565 0.049915332 0.049964581 0.049928665 0.050024789 0.050021529
0.049884066 0.049973205 0.04998108 0.049942963 0.050002038 0.050027516
0.050014488 0.050049808 0.049984723 0.050006744 0.049981967 0.050058197
0.050026499 0.04998054 0.050065748 0.049929801 0.04990539 0.04981859
0.049788579 0.049734287 0.04967989 0.04966069 0.049696963 0.049698804
0.0496982 0.04970691 0.049690928 0.049636263 0.049789026 0.049734756
0.049724277 0.049849823 0.049861204 0.049919643 0.050007891 0.0499405
0.050048478 0.050182916 0.050152503 0.050270677 0.050415039 0.050419126
0.050479658 0.050488818 0.050435349 0.050568614 0.050614275 0.050611883
0.05049482 0.050655622 0.050581787 0.050642051 0.050727181 0.050589424
0.05052175 0.050479714 0.050631285 0.050471671 0.050554171 0.050517209
0.05048145 0.050461881 0.050481029 0.050443247 0.050295748 0.050301209
0.050262921 0.050254516 0.050258536 0.050210375 0.050163541 0.050227448
0.050275233 0.050155107 0.05005705 0.050167009 0.050127052 0.050108999
0.050046004 0.05008601 0.050101001 0.050012998 0.050030999 0.049982004
0.050160006 0.050022036 0.049934004 0.050064027 0.050016001 0.050051004
0.050085012 0.049939007 0.050029006 0.050029006 0.049491059 0.049441509
0.04946043 0.049452011 0.04944513 0.049382392 0.049488608 0.049500607
0.049549632 0.049554523 0.049597595 0.049550075 0.049466897 0.049586028
0.049550302 0.049685929 0.049623836 0.049633428 0.049695376 0.049662411
0.049679384 0.049767826 0.04981808 0.049742676 0.049718224 0.049804457
0.049970392 0.04991946 0.049882732 0.049886871 0.04998894 0.049960591
0.049979463 0.05001777 0.049903866 0.049978212 0.049986515 0.049965985
0.050031841 0.050001241 0.050011907 0.050058026 0.049997997 0.050027974
0.05001425 0.050062444 0.050020061 0.049967017 0.050018713 0.049946513
0.049910206 0.049786855 0.049764447 0.049669228 0.04966142 0.049622435
0.049668647 0.049646262 0.04962723 0.049610928 0.049608015 0.049558051
0.049705584 0.049674284 0.049654551 0.049766164 0.049809407 0.049889389
0.049988206 0.049939319 0.05004004 0.05020963 0.050171543 0.050281968
0.050445899 0.050483182 0.050570752 0.050595634 0.050543312 0.050671719
0.050699953 0.050688654 0.050570637 0.050775398 0.050710086 0.050749179
0.050818861 0.050647575 0.050616521 0.050594792 0.050652612 0.050545774
0.050653931 0.050571296 0.050557535 0.050520334 0.050555158 0.050515614
0.050358783 0.050366435 0.050328854 0.050294567 0.050275449 0.050206371
0.050163459 0.050273262 0.050324146 0.050202087 0.050101008 0.050156999
0.050133038 0.050156001 0.050032008 0.050074004 0.05011601 0.050016999
0.050039016 0.049991008 0.050119039 0.050022054 0.049951036 0.050049018
0.050048009 0.050071999 0.050062068 0.04992903 0.050027046 0.050027046
0.04940908 0.049376585 0.049407523 0.04937835 0.049365543 0.049309678
0.049475618 0.049453147 0.049500834 0.049522478 0.049536861 0.049467228
0.049409606 0.049525853 0.049493741 0.049638115 0.049574271 0.049580183
0.049648575 0.0495805 0.049626637 0.049747542 0.049774375 0.049712602
0.049697131 0.049789589 0.049945075 0.049928203 0.049890254 0.049875502
0.050012622 0.049980711 0.049919933 0.050013281 0.04994341 0.049986057
0.049994931 0.050002594 0.050065339 0.049993686 0.050022133 0.050048389
0.050026786 0.050066534 0.05004251 0.050062086 0.050009333 0.049953554
0.049977779 0.049945246 0.049902808 0.04977205 0.049744423 0.049633346
0.049637806 0.049556077 0.049637634 0.04959023 0.049529977 0.049496766
0.049504135 0.049476158 0.049614608 0.049582653 0.049557894 0.049668454
0.049744796 0.049871005 0.049963638 0.049960066 0.050047629 0.050223906
0.050199322 0.050307252 0.050460473 0.050538778 0.050652336 0.050716486
0.050674871 0.05078553 0.050777402 0.050772209 0.050675623 0.050890304
0.050856207 0.050863102 0.050907359 0.050729405 0.05073363 0.050714582
0.050684623 0.050628897 0.050749648 0.050615884 0.050616264 0.050577294
0.050624926 0.050588734 0.050425649 0.050436486 0.050399732 0.050338592
0.050302342 0.050210316 0.050192252 0.050321087 0.05034605 0.05025306
0.050146002 0.050131001 0.050136007 0.050197005 0.050023016 0.05009
0.050133098 0.050015021 0.050050095 0.050000034 0.050065123 0.050016027
0.049973089 0.05002201 0.050057024 0.050106019 0.050042138 0.049922056
0.050015118 0.050015118 0.049336113 0.0493045 0.049335659 0.049289521
0.049298901 0.049263682 0.049444672 0.049397755 0.049438063 0.04948264
0.049476534 0.049382612 0.049369171 0.049474761 0.049430177 0.049567334
0.049529728 0.049534559 0.049598906 0.049508858 0.049559496 0.049707606
0.049711484 0.049691714 0.04968581 0.049775325 0.049917173 0.049921129
0.04991449 0.049876064 0.050019503 0.049989484 0.049868483 0.050006263
0.049985111 0.04999619 0.050010245 0.050056037 0.050100639 0.050014041
0.050056916 0.050038211 0.050065942 0.050108865 0.05007194 0.050068159
0.050003227 0.04994997 0.049957082 0.049941484 0.049884867 0.04976359
0.049721301 0.049619973 0.049598813 0.049466491 0.049593449 0.049520671
0.049404472 0.04937204 0.049389306 0.049384069 0.049505863 0.049461067
0.049452323 0.049575295 0.049667034 0.049845345 0.049922798 0.049974572
0.050070126 0.05024663 0.050234616 0.050343908 0.050481658 0.050593715
0.050726689 0.050834499 0.050818179 0.050905459 0.050863452 0.05087978
0.050814014 0.050994214 0.051006924 0.050981924 0.050998606 0.050839778
0.050870366 0.050836232 0.050740417 0.050719567 0.050832212 0.050669201
0.050667554 0.05063469 0.050684322 0.050655507 0.050495334 0.050505303
0.050468545 0.05038251 0.050340224 0.050234206 0.050246071 0.050360005
0.050340004 0.050296023 0.05019103 0.050108016 0.050139006 0.050223012
0.050027035 0.050133031 0.050153237 0.050013091 0.050050255 0.050003067
0.050015248 0.049998 0.049976129 0.049998011 0.050043065 0.050137054
0.050036166 0.049919061 0.049993161 0.049993161 0.049276154 0.049224351
0.049245819 0.049198482 0.049241129 0.04922653 0.049382932 0.049336363
0.049361508 0.049420804 0.049416754 0.04931413 0.049344897 0.049424894
0.049364083 0.049478721 0.04947944 0.049492586 0.049556822 0.049451862
0.049484752 0.049647976 0.049638897 0.049676813 0.049679194 0.049750503
0.049890295 0.04989462 0.049932815 0.04988056 0.050006017 0.049993955
0.049843226 0.049998015 0.050017897 0.050017413 0.050038226 0.05012133
0.050135825 0.05005822 0.05011978 0.050052736 0.050109781 0.05014202
0.050108563 0.050090715 0.050016765 0.049959216 0.049955968 0.049950901
0.049861021 0.049755931 0.049692463 0.049615405 0.049545955 0.049367484
0.049525358 0.049417458 0.049257882 0.049243975 0.049273811 0.04928045
0.049365938 0.049315054 0.04935265 0.049490038 0.049574498 0.049793828
0.049861871 0.049969599 0.050093587 0.050284378 0.050281469 0.050389711
0.050528087 0.050658338 0.050800059 0.050940197 0.050962698 0.051035501
0.050968375 0.05101886 0.050981231 0.05109147 0.05115119 0.051104579
0.051099408 0.050976682 0.051018964 0.050956912 0.05082909 0.050821282
0.050900571 0.050742421 0.050727647 0.05069375 0.050728567 0.050708979
0.05056389 0.05057092 0.05053331 0.050423309 0.050386097 0.050277065
0.050310999 0.050386015 0.050321016 0.050322998 0.050234057 0.050102066
0.050134078 0.050230034 0.050042078 0.050188091 0.050177343 0.05001821
0.050035413 0.049998105 0.049973328 0.049971007 0.049956162 0.049985003
0.050018128 0.050152056 0.050042138 0.049919032 0.049965136 0.049965136
0.049223211 0.049139265 0.049144022 0.049113415 0.0491863 0.049180433
0.049289495 0.049269002 0.04927538 0.049333956 0.049351521 0.04926683
0.049330138 0.049369574 0.049299952 0.049380656 0.049414929 0.049446378
0.049517915 0.049410164 0.049414355 0.049576025 0.049563143 0.049657144
0.049671169 0.049715161 0.04985968 0.049854223 0.049926665 0.049881466
0.049987156 0.050000925 0.049850103 0.049990769 0.05004254 0.050051358
0.050078701 0.050191358 0.05017304 0.050119005 0.050206792 0.050113071
0.050156936 0.050158963 0.050157245 0.050138801 0.050061092 0.049981549
0.049966659 0.049977839 0.049841184 0.04974838 0.0496605 0.049601778
0.049486462 0.049273882 0.049422089 0.049270183 0.049103908 0.04911676
0.049153872 0.049154349 0.049190708 0.049154878 0.049257636 0.049401712
0.049471278 0.049707405 0.049784869 0.049942262 0.050105553 0.050333679
0.050348662 0.050449643 0.050606992 0.050743423 0.05088605 0.051041048
0.051109705 0.051177345 0.051094536 0.051181555 0.051165562 0.051189374
0.05128482 0.051234793 0.05121636 0.0511319 0.051168282 0.05107848
0.050946567 0.050941128 0.050960712 0.050832544 0.050805803 0.050753795
0.050761878 0.050754271 0.050635401 0.050629426 0.050595079 0.050461084
0.050436005 0.050333999 0.05036911 0.050396103 0.050306141 0.05033008
0.050270125 0.050119217 0.050116256 0.050223097 0.050063189 0.050230205
0.050201356 0.050032336 0.050009489 0.049982179 0.049939323 0.049946047
0.049927212 0.049982004 0.049990196 0.050144013 0.050054088 0.049919005
0.04993207 0.04993207 0.049160298 0.049050279 0.049037293 0.049037486
0.049128544 0.049113598 0.049173415 0.049193762 0.049182821 0.049231187
0.049275704 0.04923274 0.049312249 0.049299147 0.049236149 0.049281705
0.049341548 0.049391091 0.049466528 0.049380351 0.049362887 0.049504403
0.049491744 0.049622346 0.049662169 0.049682885 0.049815495 0.049797542
0.049887132 0.049883366 0.049977645 0.050015058 0.049886093 0.049991712
0.050066683 0.050099779 0.050127793 0.05025715 0.050215352 0.050192144
0.050308719 0.05021828 0.050211262 0.050174426 0.050221022 0.050214298
0.050141495 0.050018303 0.049981359 0.050014291 0.049835835 0.049744066
0.049633887 0.049575001 0.04943135 0.049191762 0.049278252 0.049089279
0.048959047 0.048985012 0.049015574 0.048992153 0.048985608 0.04898908
0.049151652 0.049293086 0.04936019 0.049594264 0.04970229 0.049905028
0.05010213 0.050380051 0.050435338 0.050528791 0.050715238 0.050852634