# vtk DataFile Version 3.0
axinsert(project(???,0,L2),2)
ASCII
DATASET STRUCTURED_POINTS
DIMENSIONS 256 1 1
ORIGIN 0 0 0
SPACING 1 1 1
POINT_DATA 256
SCALARS nrrd00714 float
LOOKUP_TABLE default
0 0 0 0 0 0 0 0 0 0 0 0 0 0 0 0 0 0 0 0 0 0 0 0 0 0 0 0 0 2.4494898e-06
1.8867962e-05 0.00013517396 0.00094865484 0.0063078445 0.038928919
0.21511282 0.97562397 2.2968128 1.4382265 1.5383782 1.3553389 0.94228619
1.1589235 1.5646901 1.8230062 1.7572736 1.5246198 1.8023493 1.7553221
1.6461194 2.0409279 2.4770551 2.0954509 1.6251631 1.2951715 1.1034973
0.99856526 0.93755692 0.89810127 0.86968964 0.84689301 0.82738554
0.80986464 0.79393476 0.77920049 0.76569146 0.75296444 0.74101788
0.72975719 0.71915966 0.70915425 0.69958115 0.69066703 0.68218762
0.67407376 0.66626358 0.6587854 0.65194291 0.6453656 0.63926196 0.63373184
0.62879276 0.6240952 0.61911631 0.61439234 0.60946745 0.60429978 0.59891522
0.59325701 0.58760118 0.5826543 0.57771504 0.57333893 0.56930292 0.56518179
0.56091022 0.55683476 0.55334783 0.55067706 0.54904801 0.54845852
0.54791331 0.54659164 0.54347277 0.53878134 0.5328598 0.5277099 0.52456093
0.52289188 0.51991165 0.51191086 0.49867374 0.48374557 0.46828404
0.46562895 0.47813943 0.49502656 0.51193297 0.52012044 0.51644474
0.52897966 0.59732819 0.65072715 0.67383695 0.69053262 0.70151591
0.70097214 0.66240746 0.66240746 0.65856892 0.68468279 0.69365424
0.60924721 0.45201793 0.32430941 0.33932549 0.38884202 0.40400371
0.38816378 0.34721828 0.29961675 0.27348372 0.26923329 0.26903898
0.27068582 0.27288875 0.27573481 0.28049904 0.28790095 0.2979494 0.31106123
0.32713649 0.34358269 0.35846382 0.37166056 0.38124609 0.38762304
0.39193434 0.39512971 0.39744928 0.39939141 0.40169406 0.40463185
0.40904492 0.41815558 0.43585417 0.46376792 0.49839297 0.53403318
0.57143641 0.61082858 0.65401334 0.70082122 0.74864173 0.7944172 0.83532786
0.86999309 0.89526796 0.91311914 0.92219102 0.9213624 0.91081345 0.89076215
0.8616513 0.82175714 0.76951241 0.71021855 0.6514132 0.59957236 0.55650699
0.52047658 0.48935956 0.46046132 0.43345779 0.40475917 0.36485541 0.31022
0.23626877 0.13921945 0.051926043 0.0078859599 0.00071980694 5.9908263e-05
4.6904156e-06 0 0 0 0 0 0 0 0 0 0 0 0 0 0 0 0 0 0 0 0 0 0 0 0 0 0 0 0 0 0 0
0 0 0 0 0 0 0 0 0 0 0 0 0 0 0 0 0 0 0 0 0
