# vtk DataFile Version 3.0
axinsert(project(permute(???,2,0,1),0,L2),2)
ASCII
DATASET STRUCTURED_POINTS
DIMENSIONS 128 256 1
ORIGIN 0 0 0
SPACING 1 1 1
POINT_DATA 32768
SCALARS nrrd71588 float
LOOKUP_TABLE default
0.049959004 0.04997845 0.0500081 0.050030962 0.050007194 0.050005004
0.050044008 0.049973048 0.049939033 0.050000455 0.049997069 0.049958143
0.050018035 0.050011106 0.050024346 0.049963005 0.049945399 0.050022822
0.05005841 0.050052293 0.049996011 0.049929127 0.050021056 0.050017204
0.049985632 0.050039973 0.050039094 0.049990211 0.049995858 0.049966
0.049938645 0.049967319 0.050055549 0.050043058 0.050029494 0.050019
0.049941022 0.049993642 0.050020058 0.05009215 0.049991548 0.049966112
0.049931999 0.050024692 0.050100386 0.050080948 0.050015245 0.049959406
0.049978118 0.049998533 0.04993118 0.049941003 0.050043356 0.050007146
0.04999654 0.050043758 0.049908061 0.049944676 0.050005186 0.049976323
0.04996068 0.050022617 0.050067071 0.049987014 0.050010033 0.050042026
0.049951028 0.050028484 0.050062101 0.049979128 0.050018109 0.050015152
0.049985006 0.050022304 0.049980294 0.049974103 0.049966011 0.049956005
0.050039493 0.050030235 0.050002251 0.049990449 0.050023261 0.050033014
0.050043575 0.050008029 0.049961399 0.049942009 0.050020102 0.050024029
0.050017465 0.049992006 0.049988251 0.049977321 0.050002508 0.049979024
0.050013006 0.050030101 0.049967077 0.050021004 0.050003853 0.04989012
0.050054122 0.050075699 0.05001805 0.049993742 0.049965005 0.050014999
0.049992114 0.050006017 0.049987033 0.049985003 0.049990721 0.050018001
0.050025288 0.049985077 0.050007377 0.049981251 0.049977046 0.050060008
0.050046727 0.049978051 0.049986247 0.049932335 0.049967021 0.050013069
0.050016042 0.050016042 0.049896136 0.049947068 0.049933027 0.050145619
0.049998019 0.049968202 0.050122999 0.049879052 0.049876086 0.050001629
0.050011106 0.049803454 0.049926538 0.050053492 0.05006852 0.050016452
0.049888544 0.050153587 0.050115023 0.05006972 0.049987402 0.049767885
0.049958162 0.049981155 0.04993524 0.050096203 0.050060779 0.050016761
0.05003247 0.050001062 0.049905214 0.049971718 0.050046686 0.050108571
0.050112594 0.050112825 0.049888555 0.049955137 0.05003158 0.050116409
0.050063647 0.049871381 0.049927969 0.049985107 0.050186552 0.050120305
0.050054681 0.049950436 0.05004457 0.05001206 0.049850937 0.049864046
0.050181851 0.049999435 0.049980801 0.050142124 0.049847029 0.049886093
0.049969196 0.049944006 0.049970232 0.050083321 0.05007109 0.050016046
0.050058287 0.050016001 0.049849149 0.05002005 0.05015805 0.049981002
0.04999407 0.050054055 0.050135333 0.050044771 0.049946044 0.049897753
0.049901024 0.049891539 0.05002201 0.05012035 0.049986999 0.049962498
0.049989 0.050099183 0.050037 0.050159026 0.049965285 0.049891368
0.050030027 0.05004435 0.049992118 0.050023008 0.049940474 0.049914036
0.050141294 0.049842693 0.049915105 0.050128073 0.049989272 0.050089587
0.049922094 0.049835313 0.050200857 0.050115608 0.049987566 0.049904186
0.04986918 0.049949005 0.050051 0.050119035 0.050038368 0.049934201
0.049873095 0.050063003 0.050205182 0.049956162 0.049994171 0.04995307
0.04990752 0.050212055 0.050158277 0.049895085 0.049930144 0.049823154
0.049989052 0.04996242 0.049941022 0.049941022 0.049892038 0.050008021
0.049840052 0.050016239 0.050039452 0.050011206 0.050038036 0.049832072
0.049973112 0.050037421 0.049972113 0.049739815 0.049865432 0.050012533
0.050026115 0.050091915 0.049898911 0.050141588 0.050066125 0.049973916
0.049977433 0.049866244 0.049931902 0.049872588 0.049958047 0.050005972
0.049971059 0.050101824 0.05002648 0.050110415 0.049969919 0.049982704
0.050006613 0.05008499 0.050170161 0.050157864 0.049973499 0.0499334
0.050008859 0.049938537 0.050081026 0.049929332 0.050035354 0.049975757
0.05006684 0.050132316 0.050037201 0.050013304 0.050123286 0.050029077
0.049892776 0.049952567 0.050181586 0.050000794 0.049977683 0.050201248
0.049962081 0.050000999 0.049958322 0.049962245 0.050064217 0.050032672
0.049905013 0.050101057 0.050043121 0.049947005 0.049988136 0.04998479
0.050079096 0.049990397 0.049913023 0.05009225 0.05025408 0.050056707
0.050005421 0.04995269 0.049908563 0.049855541 0.04999974 0.050113719
0.049991705 0.049962219 0.049951795 0.050079189 0.049986668 0.050240051
0.050093126 0.04994525 0.050028741 0.050011642 0.049923126 0.050041854
0.049959101 0.049969774 0.050166298 0.049798146 0.04981998 0.050102584
0.050110757 0.049977574 0.049902502 0.049994953 0.050151348 0.05004805
0.04995738 0.049891133 0.049814343 0.049908653 0.050072391 0.05015257
0.05008379 0.049964853 0.049904134 0.049992807 0.050218232 0.050031096
0.050036624 0.050015561 0.049882922 0.050071534 0.050055187 0.049819101
0.049954005 0.049950998 0.049961921 0.049838219 0.049916159 0.049916159
0.049862068 0.050064519 0.049886007 0.049801022 0.050034847 0.050072312
0.049962319 0.049850736 0.04998422 0.050041113 0.049886964 0.049759034
0.04993948 0.049945865 0.049957976 0.050073542 0.049834777 0.049976651
0.049994823 0.050001912 0.049945336 0.049978059 0.049986295 0.049892742
0.049972262 0.049849652 0.04994547 0.050173905 0.049966026 0.050151009
0.050016578 0.04990362 0.050034836 0.05002898 0.050142411 0.05015241
0.050081085 0.04994845 0.049990501 0.049862489 0.050067071 0.050040502
0.050042138 0.049992602 0.050042894 0.050210338 0.050096739 0.04999141
0.050091766 0.050061814 0.049969424 0.050071046 0.050134309 0.050004713
0.050099835 0.050283205 0.050048176 0.050156008 0.050099082 0.049943764
0.050056063 0.049968753 0.049832005 0.050100431 0.050001033 0.050027397
0.050099272 0.049992841 0.050044529 0.049965687 0.049945645 0.050140701
0.050244275 0.050132524 0.050084177 0.050077252 0.049918815 0.049767841
0.050043903 0.050114736 0.049933344 0.049973745 0.050010659 0.05003503
0.049995992 0.050248507 0.050115466 0.050002098 0.050106201 0.050050769
0.049930785 0.050004132 0.049952246 0.050061997 0.050056834 0.049814992
0.049800619 0.050018929 0.05014522 0.049879409 0.049978286 0.050013989
0.050066359 0.050089579 0.049979191 0.04990026 0.049784005 0.049964465
0.050021082 0.050055418 0.050062541 0.050026249 0.050034139 0.049958553
0.050022997 0.050063655 0.05008477 0.050091613 0.049801614 0.049841218
0.049883194 0.049758378 0.050015166 0.050097208 0.049891975 0.049784742
0.049927581 0.049927581 0.049798012 0.05004698 0.050057076 0.049722999
0.049932171 0.050110511 0.049937122 0.049866848 0.049897198 0.049897224
0.049836952 0.049856916 0.049986672 0.049961127 0.049876705 0.050008435
0.04976321 0.0498004 0.049880683 0.050091494 0.04989415 0.049962573
0.050010823 0.049903281 0.049957216 0.049803425 0.0500031 0.050154608
0.049942173 0.050119888 0.050045889 0.049876701 0.050082427 0.05003098
0.050018329 0.050066713 0.05020152 0.050022185 0.049926914 0.049929202
0.050136968 0.050141484 0.049997479 0.049954657 0.050089259 0.050190803
0.050163835 0.049986135 0.050104752 0.050117359 0.050108533 0.050161336
0.050085597 0.050083887 0.050244421 0.050342109 0.050092485 0.050230004
0.050264258 0.04994018 0.050058007 0.049931359 0.049844097 0.050062433
0.050021008 0.050172832 0.050075155 0.050048433 0.050045639 0.050014552
0.050068263 0.050204411 0.050231926 0.050181717 0.050091323 0.05010812
0.049963791 0.049773559 0.05010356 0.050148331 0.049897354 0.049989257
0.050063234 0.050020609 0.05001824 0.050215259 0.050052572 0.05009355
0.050172266 0.050103366 0.04998247 0.049989555 0.049945746 0.050106045
0.049901672 0.049840376 0.049841642 0.049919482 0.0500324 0.049912002
0.050090279 0.05000627 0.04996771 0.050125886 0.050002906 0.049881052
0.049807295 0.049960215 0.049954552 0.050016977 0.05004289 0.049951427
0.050052851 0.0499864 0.049874276 0.049992032 0.050049286 0.050103795
0.049679231 0.049749039 0.049783353 0.049754094 0.05004473 0.050120283
0.0498004 0.049799018 0.049939353 0.049939353 0.049777228 0.049969271
0.050229058 0.049722005 0.049857147 0.050071206 0.049901001 0.049814664
0.049799111 0.049751174 0.049907424 0.049954861 0.049880061 0.049991082
0.049770277 0.049918823 0.04979749 0.049714305 0.049811125 0.050043501
0.049822997 0.049923863 0.049941204 0.049823843 0.049946949 0.049827095
0.050089341 0.050141238 0.0499973 0.050061736 0.049969696 0.049927764
0.05007486 0.050103165 0.049954291 0.049966615 0.050296769 0.050079871
0.049833544 0.050086495 0.050247371 0.050215025 0.049943633 0.049927201
0.050123148 0.050137684 0.050187107 0.050119478 0.050181132 0.050152257
0.050273012 0.050170083 0.050011076 0.050195038 0.050285004 0.050277106
0.050121553 0.050216004 0.050265171 0.05006332 0.050121065 0.049880031
0.049882438 0.050138004 0.050094027 0.05017145 0.050023075 0.050115056
0.050062999 0.050193284 0.050196357 0.050214767 0.05026295 0.050092861
0.050016042 0.050006431 0.050069131 0.050003197 0.050123844 0.050166827
0.049981363 0.04998415 0.050077092 0.050045237 0.050026786 0.050136238
0.050054412 0.050198648 0.050165769 0.050096348 0.04996606 0.049940299
0.050027162 0.050080091 0.049851187 0.049811933 0.049951978 0.049822211
0.049903631 0.049996816 0.050097529 0.050030667 0.04982559 0.050083023
0.050056614 0.049848501 0.049889993 0.049910396 0.049874283 0.050082266
0.049964875 0.049772985 0.049960542 0.050007153 0.049898613 0.049864091
0.049946003 0.050032064 0.049634073 0.049834006 0.049774349 0.049797058
0.049965799 0.05003307 0.049710013 0.049778447 0.050059006 0.050059006
0.049847916 0.049925432 0.050250933 0.049716 0.049861271 0.049951047
0.049859084 0.049721029 0.049722999 0.049762823 0.050046436 0.049954236
0.049722362 0.049895812 0.049701013 0.049813282 0.049954515 0.04973324
0.049835268 0.049923051 0.049766999 0.049941026 0.049741834 0.049779009
0.049980596 0.04978342 0.050168082 0.050241556 0.050134063 0.05000601
0.049802437 0.049958296 0.050005537 0.050162509 0.050029341 0.049928028
0.050325319 0.050073046 0.04980775 0.050246056 0.050272118 0.050236076
0.049949434 0.05001463 0.050162017 0.050189685 0.050210446 0.050312139
0.050192874 0.050162524 0.050380338 0.050104663 0.049925931 0.050190516
0.050196659 0.050101023 0.050146054 0.050155014 0.050074723 0.050225392
0.05017316 0.049802836 0.049916565 0.050309498 0.050228007 0.050011016
0.049952775 0.050121132 0.050141249 0.050388027 0.05032206 0.050127249
0.050264679 0.049906008 0.049902502 0.049888473 0.050146174 0.050400224
0.050032012 0.050122604 0.050142232 0.049969122 0.050145254 0.050078087
0.050020054 0.050034039 0.050176311 0.050302986 0.050092041 0.050093088
0.049912188 0.049783003 0.050180227 0.049932331 0.049997874 0.049760893
0.050091673 0.049824309 0.049865998 0.05003133 0.049974024 0.050087456
0.049677536 0.050000001 0.050146077 0.049769383 0.050025031 0.049976911
0.049738623 0.050175175 0.049780939 0.049660284 0.049837314 0.050020859
0.050082169 0.049734116 0.04984504 0.049961094 0.049661066 0.049989998
0.049855165 0.049845293 0.049874555 0.049890116 0.049672011 0.049708191
0.050191332 0.050191332 0.049996369 0.049993318 0.050044104 0.049739141
0.049946431 0.049779773 0.049814198 0.049676273 0.049628347 0.049895186
0.050102029 0.049886163 0.049645066 0.04973232 0.049731165 0.049715001
0.050112005 0.049786311 0.049876008 0.049903367 0.049820114 0.049973484
0.049527105 0.049860273 0.050023887 0.049723286 0.050225109 0.050390553
0.050253045 0.049957 0.049725257 0.049938474 0.049982868 0.050174192
0.050107863 0.04998124 0.050273485 0.050000709 0.049939353 0.050284471
0.050224859 0.050146103 0.050082367 0.050196394 0.050289519 0.050302416
0.050265204 0.050427008 0.050139382 0.050170738 0.050330035 0.050006982
0.049839228 0.050025642 0.049997497 0.049959112 0.050178476 0.050066322
0.049806003 0.050234523 0.050192371 0.0497736 0.049936168 0.050402429
0.0503642 0.049849257 0.049862247 0.05004767 0.050233617 0.050460186
0.050326262 0.050002202 0.05011886 0.049833201 0.049853366 0.049859136
0.050141755 0.050689001 0.049860571 0.050001487 0.050265424 0.04998482
0.050284348 0.050126985 0.050008036 0.050006945 0.050340135 0.050397046
0.049975775 0.050145812 0.049919318 0.049614422 0.050235495 0.049737372
0.050175205 0.049907763 0.050157264 0.050012223 0.049847279 0.050021313
0.049833514 0.050205898 0.04958903 0.049951144 0.050249044 0.049685255
0.050148189 0.05019103 0.049559385 0.050164256 0.049617998 0.049685143
0.049796179 0.049990226 0.050297059 0.049653076 0.049773 0.049990464
0.049757354 0.050008021 0.049975064 0.049895182 0.049902327 0.049764603
0.049736038 0.049630933 0.050105017 0.050105017 0.05017316 0.05010752
0.049773116 0.049871642 0.050041229 0.049571853 0.049778279 0.049725324
0.049475439 0.049983166 0.050073888 0.049823392 0.049686 0.049671009
0.049884982 0.049659379 0.05014281 0.049768634 0.049865603 0.049980186
0.049979918 0.049931169 0.04951426 0.049982864 0.049995512 0.04980059
0.050257545 0.050448623 0.050230086 0.049924958 0.049862597 0.049948949
0.050071392 0.050194263 0.050032392 0.050088376 0.050149079 0.04994794
0.05014931 0.050194107 0.050158475 0.049985703 0.050255802 0.050383527
0.050416008 0.050385844 0.050319165 0.050391041 0.050153352 0.050182473
0.05015333 0.049880408 0.049804769 0.049812973 0.049763534 0.049954068
0.050203439 0.04995228 0.049621515 0.05008366 0.050143216 0.049871024
0.049945027 0.050282132 0.050300527 0.049789976 0.049840737 0.049979836
0.050238144 0.05034738 0.050108064 0.049890693 0.049885258 0.04992675
0.049956437 0.049911194 0.050119553 0.05062782 0.049731761 0.049901433
0.050273299 0.050044067 0.050393008 0.050132919 0.050023247 0.050116748
0.05046875 0.050416525 0.049911577 0.050205469 0.050005782 0.049555361
0.050121572 0.049659375 0.05026105 0.05020621 0.050175522 0.050269116
0.04980145 0.050008252 0.049813762 0.050292514 0.049620707 0.04999125
0.050316077 0.049717069 0.050207123 0.050346516 0.049477089 0.050010197
0.049588338 0.049784217 0.049851999 0.049928114 0.050374001 0.049648494
0.049718115 0.050123919 0.04988841 0.049845085 0.050051052 0.049934018
0.050003093 0.049740102 0.049893461 0.049595125 0.049789798 0.049789798
0.050256852 0.050182261 0.049716238 0.05010175 0.050011806 0.049423058
0.049757589 0.049834002 0.049351443 0.049945094 0.050024323 0.049784537
0.049798775 0.049741004 0.050129045 0.049668424 0.050031167 0.049691036
0.04981764 0.05003202 0.050094094 0.049833 0.049748238 0.05000744
0.049889196 0.050025757 0.05024983 0.050360482 0.050145786 0.049937502
0.050167434 0.050025497 0.050209373 0.050263081 0.049884006 0.050195143
0.050014321 0.049978945 0.050305963 0.050078195 0.050097726 0.049928319
0.050320935 0.050468285 0.050390005 0.050417595 0.050302681 0.050227642
0.050256688 0.050188839 0.050027024 0.049758356 0.049870461 0.049722735
0.049601611 0.049982458 0.050188903 0.049829476 0.049664635 0.0499123
0.049951095 0.049989808 0.049990322 0.049946282 0.049966875 0.049808029
0.049882438 0.050020926 0.05010733 0.050070383 0.04979182 0.049790889
0.049725242 0.050045703 0.050136581 0.049989667 0.050135192 0.050272863
0.049748465 0.04995361 0.050204422 0.050146192 0.050373126 0.050020203
0.050047088 0.050283611 0.050531704 0.050346974 0.049985558 0.050214194
0.050108038 0.049640458 0.049967978 0.04985147 0.05026285 0.050346907
0.050193667 0.050396219 0.049837481 0.050017297 0.049941316 0.050234847
0.049744375 0.050107397 0.050281186 0.04990631 0.050197829 0.050228722
0.04961713 0.049876999 0.049642507 0.049813133 0.049905837 0.049906064
0.050244402 0.049732003 0.049715072 0.050231747 0.049994305 0.04968017
0.050042041 0.04991379 0.050042 0.049875546 0.050000768 0.049670096
0.049496181 0.049496181 0.050139099 0.050205402 0.049917489 0.050286058
0.049866002 0.04947935 0.049760163 0.049935162 0.049386315 0.049875159
0.049912222 0.049764164 0.049877901 0.049851023 0.050297346 0.049732018
0.049875658 0.049663369 0.049812227 0.049983066 0.050055351 0.04979641
0.050054986 0.049951751 0.049780462 0.05022414 0.050185926 0.050204013
0.050188664 0.050016817 0.050470807 0.050102811 0.050292861 0.050353121
0.049865022 0.05029406 0.049971126 0.050041959 0.050379727 0.050016955
0.050065603 0.050084282 0.050263863 0.050390631 0.050240822 0.050416701
0.050209563 0.05004767 0.050285701 0.050159194 0.050049175 0.049707931
0.049990993 0.049816187 0.049590327 0.049868278 0.050085764 0.049749963
0.049905084 0.049799666 0.049626403 0.04995098 0.050025307 0.049559359
0.04961177 0.049840543 0.049836978 0.050138626 0.049917296 0.04971353
0.049581908 0.049702331 0.049698465 0.050086636 0.050210807 0.050064947
0.050173491 0.04990194 0.049929451 0.05013879 0.05016391 0.050273955
0.050225925 0.049861871 0.050034579 0.050345171 0.050492864 0.050301626
0.050137062 0.050178558 0.050191838 0.049828764 0.049948812 0.050251167
0.050217055 0.050256561 0.050122038 0.050344117 0.050011672 0.050060622
0.050102297 0.050095126 0.049859412 0.050205272 0.0501679 0.050134495
0.050145056 0.049948715 0.049888041 0.049892008 0.049724557 0.049685389
0.049866639 0.049961008 0.050033316 0.049878921 0.049822006 0.050160047
0.05007657 0.049673069 0.049952999 0.049854524 0.050047003 0.050029323
0.049995564 0.049814753 0.049415719 0.049415719 0.049970426 0.05009314
0.050171103 0.050271444 0.049771823 0.049764108 0.049831133 0.049981032
0.049571048 0.049869522 0.049715813 0.049778074 0.049848117 0.049934007
0.050231073 0.049768794 0.049804907 0.049733784 0.049915265 0.04988604
0.049952488 0.049897 0.050236642 0.049939319 0.049728852 0.050266493
0.050108176 0.050119508 0.050344031 0.050106596 0.050621331 0.050114602
0.05029529 0.050405797 0.050024036 0.050409194 0.050053924 0.050060939
0.050397556 0.050030358 0.050070565 0.050370298 0.050181672 0.050218116
0.050109789 0.05042078 0.050136186 0.049984634 0.050140396 0.050068475
0.050116744 0.04972573 0.05007264 0.049949374 0.049728278 0.049612779
0.049861144 0.049759563 0.050086442 0.049687732 0.049367003 0.049762476
0.049880072 0.049370628 0.049482062 0.049845714 0.049647599 0.050155092
0.049807683 0.049408183 0.049544618 0.049615838 0.049732056 0.050051372
0.050122913 0.050146528 0.050173946 0.049751069 0.050194044 0.050293326
0.050185181 0.050373729 0.050055202 0.049839992 0.050028458 0.050232135
0.050331064 0.050371688 0.050230026 0.050128352 0.050273228 0.050069455
0.05008648 0.050518431 0.050188012 0.050157957 0.049940012 0.050171033
0.050216045 0.05008202 0.050216001 0.050028324 0.049906325 0.050185896
0.050070953 0.050253022 0.050097637 0.049808402 0.050108492 0.049979553
0.049849067 0.049543068 0.049734894 0.050055102 0.049932059 0.050026197
0.050002031 0.049938329 0.050086148 0.049811028 0.049814168 0.049878675
0.050126206 0.050046246 0.049947333 0.049872264 0.049492493 0.049492493
0.04993882 0.04986297 0.050276998 0.050095163 0.049755801 0.050111413
0.050008465 0.049955007 0.049783058 0.049894571 0.049548101 0.049865548
0.049720895 0.050005004 0.050011639 0.049737707 0.049838029 0.049843166
0.050102763 0.04985182 0.049946643 0.050062887 0.050195694 0.049988426
0.049783066 0.050234776 0.050110377 0.050167065 0.050423138 0.050088856
0.050556213 0.050075889 0.050246023 0.050397746 0.050247893 0.050509486
0.050193194 0.050073896 0.050408579 0.050101373 0.050125308 0.050558861
0.050151043 0.050086301 0.050054204 0.050424155 0.050161827 0.050086837
0.049944799 0.049970787 0.050082177 0.049741041 0.050060764 0.049938835
0.049903553 0.049375232 0.049602151 0.049832236 0.049970601 0.049511001
0.049364232 0.049563088 0.049557012 0.049441561 0.049516615 0.04976121
0.049471073 0.049913578 0.049819682 0.049311012 0.049589612 0.049539503
0.049717721 0.049994621 0.049990945 0.050221361 0.050103724 0.049851976
0.050407846 0.050277628 0.050217558 0.05039658 0.049960352 0.050023034
0.050127521 0.050077174 0.050101615 0.050525699 0.050235022 0.050064031
0.050328474 0.050323401 0.05024102 0.050408047 0.050207119 0.050191227
0.049846411 0.049985256 0.050283391 0.050040293 0.050295722 0.050056823
0.049905501 0.050038647 0.050024237 0.050247319 0.050056018 0.049949024
0.050222326 0.04998219 0.050012745 0.049612235 0.049641382 0.050097138
0.049997415 0.050115027 0.05017503 0.049713973 0.050003156 0.049958225
0.049694177 0.050050002 0.050232705 0.049986053 0.04986934 0.049799137
0.049564015 0.049564015 0.05000709 0.049737003 0.050204072 0.049945939
0.049743019 0.050275769 0.050215323 0.04986418 0.049915101 0.049903058
0.049523059 0.050022338 0.049578391 0.050099019 0.049881715 0.049744021
0.049878143 0.049891181 0.050277848 0.049911574 0.050066024 0.050141357
0.049969696 0.050006285 0.049993344 0.050284341 0.050224502 0.050254948
0.05035435 0.049956437 0.050295953 0.050062783 0.050168756 0.050354164
0.050448209 0.05051196 0.050290421 0.050197948 0.050467845 0.050196525
0.050225679 0.050499391 0.050166097 0.050089523 0.050039001 0.050363421
0.050231066 0.050291263 0.049871761 0.049968723 0.049943294 0.0497059
0.049980864 0.049780037 0.049952548 0.049282379 0.049497698 0.049872033
0.049618937 0.049329083 0.049488991 0.049431 0.049290065 0.049585376
0.049498983 0.049547188 0.049410157 0.049440362 0.049858674 0.049490593
0.049637191 0.049532659 0.049651749 0.049935885 0.049925379 0.050228573
0.049985804 0.050057355 0.050464947 0.050129447 0.050232701 0.050341845
0.049974959 0.05027958 0.050345588 0.050069254 0.049951244 0.050627619
0.050260417 0.04999635 0.050312106 0.050538383 0.050277106 0.050076943
0.050229736 0.050229583 0.050014518 0.049915314 0.050171636 0.050012399
0.050363071 0.050068621 0.049911395 0.049859114 0.049988318 0.050196532
0.049958263 0.05021774 0.050264727 0.049839955 0.050146256 0.049905878
0.04973527 0.050055023 0.050118472 0.050130095 0.050315317 0.049623687
0.049923055 0.050013129 0.049694039 0.050232373 0.050232738 0.049936004
0.049796253 0.049685016 0.049582005 0.049582005 0.05005803 0.04982001
0.050043531 0.049978584 0.049728706 0.050198626 0.050287005 0.049716666
0.04995206 0.049941171 0.049633063 0.050174005 0.049529135 0.050148118
0.049934998 0.049885951 0.049857728 0.049844898 0.050333157 0.050015617
0.050131097 0.050133411 0.049757048 0.049981114 0.050309185 0.050380889
0.05034687 0.050259504 0.050267689 0.049866278 0.049985833 0.050134405
0.050121535 0.05031848 0.050591059 0.050390627 0.050313376 0.050431658
0.050570093 0.05028747 0.050330121 0.05027752 0.050197385 0.050202649
0.050050784 0.050220676 0.050249323 0.050484344 0.049939997 0.050066926
0.049791332 0.049646124 0.049905758 0.049631178 0.049849693 0.049356122
0.049593236 0.049792092 0.049300246 0.049220823 0.049441759 0.049327005
0.049215179 0.049622037 0.049371064 0.049278174 0.049337979 0.048939865
0.049801517 0.049776688 0.049689751 0.049629994 0.049632959 0.049868684
0.049876422 0.05012669 0.049896568 0.050172091 0.050389271 0.050016198
0.050259575 0.050264388 0.050073549 0.05045389 0.050544426 0.050208632
0.049997255 0.050560486 0.050379612 0.049984004 0.050256021 0.050654262
0.050195754 0.049881242 0.050231382 0.050139822 0.05034712 0.050012019
0.050016496 0.050090648 0.050383277 0.050018933 0.04995973 0.049769249
0.049935143 0.050138585 0.049808551 0.050325897 0.050215431 0.049667086
0.050203469 0.050187577 0.050030295 0.050020009 0.050178055 0.050106
0.050404262 0.049758062 0.049884066 0.050061006 0.049809929 0.050238356
0.050059255 0.049887601 0.049795002 0.049635399 0.049619004 0.049619004
0.050032105 0.050016731 0.04983842 0.050147593 0.049783692 0.050090805
0.050130021 0.049526643 0.050013147 0.049973127 0.049849164 0.050231088
0.049632125 0.050060663 0.050011367 0.050065923 0.049818005 0.049772765
0.050221045 0.05011303 0.050003044 0.050158113 0.049837079 0.050047442
0.050505072 0.050365072 0.050349273 0.050202414 0.050281193 0.049945671
0.049857993 0.050306842 0.050185833 0.050330091 0.050641153 0.050235383
0.050300859 0.050615665 0.050644606 0.050371073 0.050384242 0.050109763
0.050251037 0.050317522 0.050112724 0.050104182 0.050224226 0.050551269
0.050032128 0.050129049 0.04969478 0.049660273 0.04989199 0.049609106
0.049723256 0.049550887 0.049674906 0.049575552 0.049161967 0.049140196
0.049195919 0.049163461 0.0492061 0.049500119 0.049279649 0.049072001
0.049126912 0.048644736 0.049601838 0.049839836 0.04971334 0.049780022
0.049710136 0.049842622 0.049768973 0.049951285 0.049898729 0.050116576
0.050301671 0.050061088 0.050299235 0.050245624 0.050223198 0.050522622
0.050560325 0.050322745 0.050215319 0.050364677 0.050517756 0.050082326
0.050246786 0.050662104 0.050096385 0.049991835 0.050262325 0.050016582
0.05055818 0.050218139 0.049967658 0.050223015 0.050315164 0.04996758
0.05004137 0.049817041 0.049859002 0.050077315 0.049720272 0.050131235
0.050089765 0.049651414 0.05019848 0.050271839 0.050332837 0.050063048
0.050180092 0.050066035 0.050424445 0.050023153 0.049846049 0.050209448
0.049943235 0.05007102 0.049791008 0.049784794 0.049827557 0.049717072
0.049764015 0.049764015 0.049962297 0.050121836 0.049674466 0.050181843
0.049992044 0.050119076 0.049783204 0.04939371 0.050209332 0.04992722
0.050116442 0.050159071 0.049850184 0.049884379 0.049946263 0.050114259
0.049816299 0.049762364 0.05000513 0.050153445 0.049822114 0.05019876
0.050259057 0.050260104 0.050408792 0.050209332 0.050229013 0.050207019
0.050345019 0.050155025 0.050013237 0.050547842 0.050352741 0.050387021
0.050597418 0.050177488 0.050332874 0.050655831 0.050649539 0.050461963
0.050369009 0.050088618 0.05032748 0.050356392 0.050201364 0.050131921
0.050228309 0.050427172 0.050050169 0.050073478 0.049709257 0.049823496
0.049929406 0.04967102 0.04963658 0.049729612 0.049519189 0.04930228
0.049124081 0.049016986 0.048984155 0.048918821 0.049086027 0.049265064
0.049297139 0.048939049 0.048881523 0.048684776 0.049308565 0.049537838
0.049582902 0.049874943 0.049806647 0.04988749 0.049652644 0.04978193
0.04998339 0.049992554 0.050272088 0.050230313 0.050325397 0.050327845
0.050394326 0.050527688 0.050383456 0.050316699 0.050487246 0.050207391
0.050587177 0.050271329 0.050323173 0.050608359 0.050068416 0.050302166
0.050341591 0.050021004 0.050474256 0.05043016 0.050059065 0.050234012
0.050179705 0.049955852 0.050123658 0.049969144 0.049784094 0.050028298
0.049793001 0.04980712 0.050004642 0.049854189 0.050134208 0.050246011
0.050403364 0.050104018 0.050202541 0.050035998 0.050355427 0.050198648
0.049798001 0.050354302 0.050052129 0.049857374 0.049603548 0.049659684
0.049781188 0.049910534 0.050032027 0.050032027 0.049856428 0.050052367
0.049707521 0.050060105 0.050200999 0.050192192 0.049444001 0.049473062
0.05039591 0.049897444 0.050273243 0.049996104 0.050072093 0.049768776
0.049805 0.050042111 0.049858097 0.049818423 0.049820021 0.050125021
0.049787037 0.050203085 0.050680045 0.050460439 0.050178085 0.050081108
0.050095011 0.050301336 0.050356049 0.050397567 0.050306514 0.050775416
0.0504921 0.050428055 0.050509792 0.05028693 0.050476447 0.050638359
0.050576877 0.050523143 0.050344393 0.05014953 0.050393362 0.050328154
0.050260704 0.050284103 0.050255235 0.050168961 0.050036155 0.050015621
0.049876451 0.05007058 0.049928408 0.049699858 0.049534082 0.049718987
0.049184229 0.049087767 0.049056765 0.048873361 0.0489057 0.048665281
0.048857115 0.04899 0.049266983 0.048803613 0.048782077 0.048989575
0.049037855 0.04910399 0.04926195 0.049843278 0.049814649 0.049897254
0.04961649 0.04968426 0.050090875 0.049969863 0.050263807 0.050368249
0.050358232 0.050447349 0.050525799 0.050481275 0.050186943 0.050304491
0.050691623 0.050201129 0.050613828 0.050499849 0.05045446 0.050512116
0.05012374 0.050598118 0.050376862 0.050176177 0.050197087 0.050543364
0.050230056 0.050061513 0.050049029 0.049980693 0.050205328 0.05018143
0.049792018 0.050001033 0.049984001 0.04964805 0.050056066 0.050081033
0.05005021 0.050252143 0.050232135 0.050022177 0.050236255 0.050076235
0.050177 0.050208881 0.049751006 0.050326478 0.050114512 0.049712885
0.049603347 0.049642887 0.049660493 0.050102308 0.050311051 0.050311051
0.049704157 0.049953423 0.049966004 0.049937882 0.050226454 0.050142337
0.049319558 0.049797595 0.050337519 0.049972013 0.05019816 0.049820561
0.050202005 0.049778007 0.049788002 0.050012223 0.049930058 0.049890827
0.049756546 0.050056882 0.04994205 0.050211024 0.050741259 0.050439179
0.050121043 0.050118513 0.05004112 0.050362594 0.050346084 0.050643638
0.050524667 0.050891075 0.050495379 0.050409909 0.050440755 0.050517917
0.050703917 0.050655745 0.050412506 0.050498057 0.050404441 0.050242867
0.050462365 0.050304145 0.050297309 0.05044407 0.050257556 0.049955558
0.0500983 0.05006833 0.050101925 0.050223276 0.049801383 0.049689282
0.049427677 0.049487133 0.048908226 0.048923507 0.048920766 0.048796609
0.048803773 0.048489518 0.048640814 0.048717018 0.04900378 0.048621878
0.048818823 0.049281873 0.04888837 0.048857976 0.048948627 0.049708005
0.049729701 0.049763694 0.049656209 0.04968708 0.050177082 0.050107267
0.050223839 0.050358169 0.050444081 0.050489794 0.050554208 0.050429121
0.050178681 0.050422031 0.050746042 0.050296213 0.050653566 0.05074545
0.050594237 0.050365664 0.05021733 0.050735548 0.05028278 0.050394088
0.049987003 0.050477263 0.050400745 0.049863804 0.049988471 0.050050914
0.050319042 0.050384302 0.049931012 0.049992293 0.050157018 0.049761228
0.050177965 0.050120391 0.050024912 0.050248642 0.050043393 0.0498452
0.050209086 0.050187558 0.049917106 0.050156821 0.049735006 0.050116759
0.050048582 0.049690902 0.049759127 0.049788311 0.049612001 0.050183229
0.05044705 0.05044705 0.049599081 0.049908001 0.050231192 0.049855426
0.050105575 0.049996998 0.049477205 0.050174113 0.050035022 0.050084028
0.049984023 0.049709179 0.050240114 0.049820021 0.049980089 0.050095182
0.050012104 0.049956705 0.049833748 0.049971644 0.050190222 0.050297145
0.050469887 0.050184712 0.050241999 0.050243162 0.05010451 0.050302941
0.050418124 0.050868709 0.050614994 0.050879084 0.050386351 0.050387975
0.05042585 0.050729338 0.050879858 0.050670851 0.050198756 0.05041327
0.050560188 0.050405372 0.050597262 0.050366115 0.050399791 0.050539114
0.05026206 0.049949929 0.050248448 0.050153319 0.050185382 0.050164673
0.049608201 0.049730308 0.049404897 0.049187936 0.048785355 0.048701018
0.048739582 0.048809968 0.048551515 0.048400126 0.048460796 0.04843311
0.048502304 0.04841866 0.048816651 0.049269192 0.04884648 0.048811205
0.048872963 0.049557071 0.049648337 0.049594484 0.049724307 0.049784768