# vtk DataFile Version 3.0
axinsert(project(permute(???,2,0,1),0,L2),2)
ASCII
DATASET STRUCTURED_POINTS
DIMENSIONS 128 256 1
ORIGIN 0 0 0
SPACING 1 1 1
POINT_DATA 32768
SCALARS nrrd12205 float
LOOKUP_TABLE default
0.050027002 0.050014008 0.050004013 0.049986999 0.04997316 0.049986042
0.049958162 0.050024617 0.050021011 0.050006542 0.050011061 0.049977072
0.050027013 0.050015029 0.050042011 0.050052054 0.049945138 0.049961247
0.050054047 0.050026041 0.049961112 0.049969126 0.050007008 0.04995602
0.049996302 0.05001108 0.050011151 0.049992014 0.04996708 0.049992241
0.050042003 0.050016176 0.049989998 0.050024059 0.050054077 0.050007086
0.050014999 0.050020199 0.049942065 0.049978014 0.050005034 0.050025027
0.049957026 0.049950041 0.05002417 0.049998999 0.049971208 0.050015174
0.050003029 0.049976103 0.050018154 0.050039183 0.049992003 0.050025016
0.050054103 0.049996041 0.04998707 0.050006073 0.049993008 0.049964078
0.049972087 0.049991999 0.049990218 0.050011009 0.050047092 0.050012998
0.049976014 0.049980018 0.050060209 0.050025236 0.049962007 0.049979027
0.049990006 0.050021082 0.049971096 0.050010458 0.050041027 0.049990032
0.049983006 0.049986005 0.049994033 0.050036009 0.049958058 0.049978375
0.050046001 0.050053008 0.049971096 0.049978063 0.050001059 0.050002042
0.049977191 0.049947008 0.049989071 0.050030153 0.050060999 0.049981061
0.05002312 0.050042074 0.049951002 0.049985044 0.050016001 0.049966015
0.050021011 0.050038043 0.049972121 0.049981032 0.049995009 0.049958013
0.049973004 0.049985021 0.050030019 0.050057013 0.050030012 0.049967255
0.049954284 0.050030015 0.049996998 0.049998008 0.050035011 0.049990255
0.050016005 0.050002232 0.049974006 0.049995039 0.050002009 0.050029069
0.049971137 0.049971137 0.050071042 0.05004308 0.049946032 0.049929
0.049961124 0.050000001 0.049931999 0.049992036 0.05008509 0.050064031
0.050032008 0.049988031 0.049984116 0.049973212 0.050106019 0.050036136
0.049873348 0.05001815 0.050107002 0.050022312 0.049903035 0.049932141
0.049993146 0.049892288 0.05001637 0.050060052 0.050016124 0.050067294
0.049933016 0.049971271 0.049985059 0.050072946 0.050035201 0.05007739
0.050095085 0.049947359 0.049994029 0.050023258 0.049994208 0.049902011
0.049999375 0.050052002 0.049943406 0.049896024 0.050021272 0.050005008
0.049919255 0.050056066 0.050041173 0.049953043 0.049967054 0.050084218
0.049991064 0.050034329 0.050155029 0.049968041 0.049982175 0.049946018
0.0499929 0.049997013 0.049936216 0.049962003 0.050040487 0.050035011
0.049961094 0.050022595 0.050008148 0.049930219 0.050043464 0.050116744
0.049988165 0.049933385 0.049935307 0.050053459 0.049922496 0.050012611
0.050073244 0.049914714 0.050023768 0.050044358 0.050026231 0.05000012
0.049927689 0.049988069 0.0501252 0.050102104 0.049884263 0.050025314
0.050033014 0.049984187 0.050029002 0.04990302 0.049981013 0.050054003
0.050027002 0.049936268 0.050009001 0.050061483 0.049941007 0.049942195
0.050057068 0.049972098 0.050056029 0.050108053 0.050009001 0.049996011
0.049966011 0.049975 0.049998261 0.049934063 0.049960144 0.050029002
0.050063059 0.049910001 0.04993109 0.050080009 0.050032027 0.050108198
0.050067224 0.049961071 0.049969081 0.049951036 0.049985003 0.049980015
0.049943 0.050044172 0.050014004 0.050014004 0.050018068 0.050026
0.049941227 0.049956039 0.049979024 0.050023012 0.049936008 0.049915001
0.05002616 0.050120246 0.050097048 0.050019015 0.04992203 0.049934026
0.050046045 0.049958333 0.049902089 0.050092291 0.050073102 0.049975373
0.04994224 0.049934208 0.049937341 0.049917381 0.050058182 0.050065301
0.049985129 0.05010055 0.049966104 0.050007604 0.049957011 0.050046332
0.050055161 0.050036486 0.050041281 0.049886797 0.049995571 0.050010528
0.050105516 0.049885191 0.049986586 0.050057117 0.049976528 0.04997706
0.049966156 0.04997921 0.049909305 0.050032325 0.050047629 0.050008416
0.049940225 0.050049294 0.050036363 0.050066054 0.050112106 0.049949244
0.049994152 0.049876198 0.0499966 0.050070237 0.049954411 0.049942195
0.050067447 0.050082318 0.049823176 0.04998786 0.050060347 0.049892779
0.04996248 0.050111223 0.050065864 0.049939692 0.049917709 0.049986668
0.049935609 0.050043393 0.050036337 0.049915489 0.050049979 0.050066549
0.050092086 0.049957234 0.049979042 0.050032046 0.050061855 0.050002534
0.049921818 0.050127119 0.050072897 0.050013043 0.050059419 0.04997009
0.049998134 0.050027035 0.049931169 0.049968034 0.049971011 0.05000715
0.050007042 0.04999201 0.05006003 0.049990021 0.050051007 0.050086088
0.050048009 0.049987126 0.049961012 0.050042175 0.050096035 0.049969014
0.049898166 0.049920019 0.050023999 0.049922004 0.049978007 0.050088
0.050108075 0.05017506 0.05000506 0.049958006 0.049910057 0.049894009
0.050006002 0.049985025 0.049893014 0.049983107 0.050121009 0.050121009
0.049961012 0.049989007 0.049980134 0.050027046 0.049941018 0.050020013
0.049922004 0.049870007 0.04995304 0.050101258 0.050136235 0.050013371
0.049962223 0.049941048 0.049968161 0.049993344 0.049904019 0.05003228
0.050066315 0.049965374 0.049963459 0.049916364 0.049929559 0.049953222
0.050055239 0.050081458 0.049956169 0.05006063 0.049954325 0.050015882
0.050055403 0.049977243 0.050008904 0.050025582 0.050010819 0.049892649
0.050019771 0.050043445 0.050086569 0.049919523 0.050010197 0.050065294
0.04997424 0.050022241 0.049942125 0.049966276 0.049893133 0.049965229
0.050019495 0.050055526 0.050007235 0.050017174 0.050075583 0.050107144
0.050080404 0.049962305 0.049976259 0.049830355 0.049971636 0.050062586
0.049964894 0.049948595 0.050012756 0.050116435 0.049855612 0.049943775
0.050038978 0.04990815 0.049942505 0.050038312 0.050083309 0.049969275
0.04995504 0.049911831 0.049991917 0.050052319 0.050041266 0.049957152
0.050012723 0.050039399 0.05010663 0.0499795 0.050031412 0.050033156
0.04996622 0.049968712 0.050019026 0.050163109 0.05008585 0.050046112
0.050001755 0.050015315 0.05003335 0.050030153 0.049996261 0.050027024
0.049951036 0.050016012 0.050038025 0.050046124 0.050028998 0.049951039
0.05002201 0.050099004 0.050008003 0.049937095 0.049951028 0.050073162
0.050164003 0.050002024 0.049955022 0.049915042 0.049982011 0.04993901
0.049958047 0.050117999 0.050124153 0.050103016 0.049966015 0.049948078
0.04995003 0.049856 0.049974058 0.050034031 0.049907014 0.049972005
0.050152019 0.050152019 0.049951002 0.049956005 0.049977019 0.050034001
0.049884096 0.050028078 0.049956072 0.049859002 0.049905039 0.050019182
0.050074492 0.050014794 0.05004847 0.049962241 0.049931269 0.050043363
0.049920075 0.049951185 0.05005246 0.049942326 0.049942642 0.049918581
0.049969565 0.050002299 0.049999259 0.050087783 0.049960397 0.050031655
0.049929459 0.049965974 0.050114017 0.049944732 0.049965944 0.050063934
0.050015699 0.049918655 0.050018549 0.050068427 0.050068509 0.049996469
0.050032046 0.050056323 0.049974117 0.050028309 0.049952138 0.049971223
0.049929157 0.049916022 0.04997823 0.050067134 0.050053187 0.049957078
0.050052688 0.050100304 0.050055001 0.049995694 0.049973659 0.049797554
0.049941812 0.050021794 0.04995646 0.049966119 0.049940199 0.050099213
0.04994354 0.049907278 0.050009072 0.04998165 0.049943052 0.049974363
0.050073761 0.049984656 0.049985617 0.049878363 0.05004099 0.050011855
0.050085742 0.049982402 0.049968634 0.050077628 0.050067585 0.049991895
0.050071366 0.05005559 0.049920101 0.050033603 0.050081365 0.050155308
0.050068513 0.05003643 0.049979713 0.050058361 0.050056331 0.050057225
0.050104119 0.050065011 0.049958035 0.050020084 0.050083056 0.050038263
0.049997106 0.04996416 0.049976006 0.050132018 0.049973998 0.049908001
0.049937002 0.050105009 0.050178006 0.049998019 0.050005 0.049922012
0.049984001 0.049954042 0.049929019 0.050141007 0.050083011 0.05000706
0.049960092 0.049942065 0.050009053 0.049869001 0.049952 0.050093025
0.049941037 0.049988005 0.050099112 0.050099112 0.04996001 0.049934
0.049952999 0.049973041 0.049857166 0.05002404 0.050005239 0.049875002
0.049850143 0.049932163 0.049999639 0.050008643 0.050091777 0.049992565
0.049934532 0.050068513 0.049962446 0.049899247 0.050025649 0.049927525
0.049899802 0.049938988 0.049991645 0.050035778 0.0499475 0.05004213
0.049992032 0.050037783 0.049908843 0.049899928 0.050097384 0.049994506
0.049960531 0.050086293 0.050039612 0.049941957 0.050048549 0.050067395
0.050067645 0.050087422 0.050041057 0.050030369 0.049975157 0.050015308
0.04997129 0.049952202 0.050007455 0.049926002 0.049960215 0.050057001
0.05004324 0.049885068 0.049994722 0.050050396 0.049989477 0.050026204
0.050004244 0.049803764 0.049924914 0.049966026 0.049917758 0.049982667
0.049885627 0.0500594 0.049981155 0.049875505 0.049997799 0.05003947
0.049982287 0.049942665 0.050049618 0.049992245 0.04998951 0.04987615
0.050058369 0.049986962 0.050116472 0.049988616 0.049948603 0.050167385
0.050046481 0.050018419 0.050078016 0.050082285 0.049956731 0.05010958
0.050086297 0.050131589 0.050049357 0.050016694 0.050016459 0.050102256
0.050074153 0.050104134 0.05017601 0.050076004 0.050007008 0.049995065
0.050115041 0.050015118 0.049994037 0.050023098 0.049942046 0.050122034
0.049965005 0.049918026 0.049935039 0.050109033 0.050155032 0.049981002
0.050025009 0.04991702 0.050008003 0.049970061 0.049916022 0.050110038
0.050024025 0.049967032 0.049973045 0.049968019 0.050035 0.049925011
0.049932167 0.050092038 0.04997804 0.050012 0.050033111 0.050033111
0.049952999 0.049927007 0.049919002 0.049906116 0.049886107 0.04999401
0.050010338 0.049883053 0.049805313 0.049877152 0.049956594 0.049980417
0.050068963 0.050006755 0.04994496 0.050058771 0.049996313 0.049904678
0.04998206 0.049919248 0.049854286 0.049954824 0.050000142 0.050038647
0.049943212 0.049986504 0.050025787 0.050055094 0.049914621 0.0498759
0.050030533 0.050090943 0.049982525 0.050060432 0.050054897 0.049943313
0.050117992 0.050057583 0.050058156 0.050180685 0.050043304 0.050008614
0.049990356 0.049982384 0.049991667 0.049921248 0.050080918 0.049974017
0.049974456 0.050048999 0.049991455 0.049838156 0.049936708 0.049987461
0.049905453 0.050029252 0.050045647 0.049847897 0.049896959 0.049905408
0.049869809 0.049981046 0.049868036 0.050029237 0.049941503 0.049841587
0.050014105 0.050036177 0.050034609 0.049940366 0.050009575 0.050003331
0.049993455 0.049901165 0.050051752 0.050018124 0.050106976 0.049995352
0.049975909 0.050221153 0.050051577 0.050066996 0.050080974 0.050112735
0.050033633 0.050131753 0.050081581 0.050138634 0.050049335 0.050013542
0.050082229 0.050150111 0.05010004 0.050147027 0.050207 0.050067
0.050055001 0.049975034 0.050124001 0.050026037 0.049998034 0.050081015
0.049946271 0.050070036 0.049971055 0.049950056 0.049947187 0.050097104
0.05013115 0.04996305 0.050042085 0.049914092 0.0500171 0.049980093
0.049914103 0.050039094 0.049969003 0.049982999 0.049981013 0.050006002
0.050028082 0.049984038 0.049934339 0.050027009 0.049993012 0.050031003
0.050006017 0.050006017 0.049935039 0.049931016 0.049876023 0.049872167
0.049933098 0.04994107 0.049970422 0.04987831 0.049801443 0.049861185
0.049921464 0.049936458 0.050023936 0.049991887 0.049933325 0.050015196
0.049984202 0.049939685 0.049930833 0.049901485 0.049825292 0.049962811
0.050013199 0.050028641 0.049969353 0.049964182 0.050054494 0.050055761
0.049945656 0.049906231 0.049957868 0.050158139 0.050022382 0.050016552
0.05005483 0.049931634 0.050166871 0.050049353 0.050043099 0.050257392
0.050054122 0.05001612 0.050028853 0.049944591 0.050014134 0.049904387
0.050124153 0.050012197 0.050002933 0.050055098 0.049927838 0.04983142
0.049902797 0.04993758 0.049849253 0.050000936 0.050060753 0.049900059
0.049850125 0.049850784 0.049842797 0.049954101 0.049873408 0.050002154
0.049865123 0.049815785 0.050033443 0.049998734 0.050060026 0.049951378
0.049955122 0.05001368 0.049999174 0.049951617 0.050053 0.050082065
0.050081916 0.050014369 0.050047543 0.050218422 0.050057631 0.050109316
0.050105188 0.050143827 0.050099835 0.050118003 0.050114848 0.05018447
0.050072383 0.050045267 0.050146081 0.050190017 0.050130013 0.050178003
0.050226003 0.050060045 0.050071009 0.049989052 0.050126083 0.050060052
0.049982257 0.050117012 0.049974464 0.050024081 0.049985252 0.049976137
0.049965389 0.050093286 0.050123397 0.049950246 0.050054323 0.049922287
0.05001048 0.049967207 0.049920317 0.04998026 0.049932115 0.050015096
0.049968246 0.050018027 0.049998209 0.050014 0.049969234 0.049946051
0.049979001 0.050028015 0.05000801 0.05000801 0.049917161 0.049938042
0.049833141 0.049851205 0.049936287 0.049887411 0.049917646 0.049880952
0.049844548 0.049871396 0.049876474 0.049891807 0.049982924 0.049950343
0.049895629 0.049957026 0.049930759 0.04995212 0.049892042 0.049874842
0.049824674 0.04996565 0.050021708 0.050022636 0.04999378 0.049972329
0.050074596 0.050042145 0.049984947 0.049961373 0.049919877 0.050148621
0.050059766 0.049999177 0.050050609 0.049939279 0.050154071 0.050040901
0.050048281 0.050308425 0.050083514 0.05005084 0.050087854 0.049936902
0.050039575 0.049918637 0.050135165 0.050012618 0.05001539 0.050067604
0.049883313 0.04984789 0.049899124 0.04991778 0.049840167 0.049960703
0.050028764 0.049930349 0.049803514 0.049814995 0.049837854 0.049911074
0.049868658 0.049954444 0.049801972 0.049806543 0.050020903 0.049990397
0.050058573 0.049945425 0.049898315 0.050010774 0.049990587 0.050013129
0.050086223 0.050137669 0.050077356 0.050046403 0.050138682 0.050213423
0.050060503 0.050127156 0.05013727 0.050167717 0.050147954 0.050125994
0.050184593 0.050231252 0.050106324 0.050116088 0.050209008 0.050203018
0.050153013 0.050209079 0.050254006 0.05007324 0.050060045 0.050036158
0.050132316 0.05008921 0.049963515 0.050133184 0.050003599 0.050012354
0.050001584 0.049986463 0.049997684 0.050101906 0.05011775 0.049945787
0.050054662 0.04995073 0.049996052 0.049935505 0.049936697 0.049963668
0.049911726 0.050025467 0.049940653 0.049992245 0.049967304 0.049998127
0.050009117 0.049885269 0.049955003 0.049995147 0.050002061 0.050002061
0.049889278 0.049934097 0.049800381 0.04981526 0.049879756 0.049853984
0.049864072 0.049901851 0.049908821 0.049881022 0.049832858 0.049853586
0.04993834 0.049898498 0.049845196 0.049900431 0.049871385 0.049921744
0.049869567 0.049851317 0.049844272 0.049958836 0.0500197 0.050023925
0.050000627 0.049982145 0.050072618 0.050035622 0.050017744 0.050005775
0.049932946 0.050078012 0.05007837 0.050026856 0.050052062 0.049979735
0.050103698 0.050040852 0.050084565 0.050334577 0.050122149 0.05008677
0.050163351 0.049978364 0.050062094 0.049963061 0.050122261 0.04998824
0.049999632 0.050073504 0.04987273 0.049862441 0.049921617 0.049932059
0.049863238 0.049921714 0.049959801 0.049930636 0.049774997 0.049805067
0.049837932 0.049866226 0.049838722 0.049884912 0.049771387 0.049814422
0.04996806 0.050028954 0.050050166 0.049903266 0.049853582 0.050002303
0.049970694 0.050069764 0.050148483 0.050167717 0.050103988 0.050086886
0.050220981 0.050241441 0.050085299 0.050138626 0.050157975 0.05018935
0.050199624 0.050182588 0.050270122 0.050248057 0.050137099 0.050202999
0.050281029 0.050179195 0.050170001 0.050249331 0.050288055 0.050103571
0.050043203 0.050098486 0.05014468 0.050108675 0.049971953 0.050139003
0.050023951 0.050024245 0.050011087 0.049998354 0.050048329 0.050110206
0.050099257 0.049939808 0.050043128 0.049990639 0.049966626 0.049906075
0.049957275 0.049980268 0.049896564 0.049997997 0.049910963 0.049939685
0.049950399 0.049952533 0.050017096 0.049858388 0.049935058 0.049936209
0.049965024 0.049965024 0.049831316 0.049907159 0.049774662 0.04976536
0.04979023 0.049833413 0.049802672 0.049923677 0.049955506 0.04986731
0.04979806 0.049821038 0.049880691 0.049854595 0.049806483 0.04985242
0.049825694 0.049864728 0.0498535 0.04983037 0.049860399 0.049939267
0.050020408 0.050030172 0.049984228 0.049978141 0.050044809 0.050044402
0.050043643 0.050027553 0.049978178 0.049996886 0.050078925 0.050084844
0.050062824 0.050041299 0.050067879 0.050059784 0.050143048 0.050344966
0.050157972 0.050117124 0.050250027 0.050060272 0.050080892 0.05002588
0.050104711 0.049973015 0.049971715 0.050066311 0.04988895 0.049863871
0.04995399 0.049970392 0.049897309 0.049887922 0.049891852 0.04990571
0.049758393 0.049817003 0.049825016 0.049826447 0.049801674 0.049814135
0.049758092 0.049830433 0.049900752 0.050067022 0.050035503 0.049837813
0.049827002 0.050005272 0.049959641 0.050110228 0.050221741 0.050181329
0.050147355 0.05014123 0.050271932 0.050296448 0.050152093 0.050173048
0.050174497 0.050227683 0.050272133 0.050264105 0.050352015 0.050244018
0.05016702 0.050274145 0.05035622 0.050141662 0.050193094 0.050298061
0.05030838 0.050142132 0.050042771 0.050156299 0.050171431 0.050138824
0.050018054 0.050138853 0.050036959 0.05003912 0.050014123 0.050026216
0.050098762 0.050096884 0.050071217 0.049930207 0.050033998 0.05002097
0.049919307 0.049889967 0.049968064 0.0499979 0.049876139 0.049939454
0.049889151 0.049884193 0.0499366 0.049898878 0.049978185 0.049858332
0.049909241 0.049868088 0.049906004 0.049906004 0.049738266 0.049855217
0.049739845 0.049719546 0.049697399 0.049793664 0.049726415 0.049920302
0.049949866 0.049818292 0.04976742 0.049789395 0.049816437 0.049831577
0.049790937 0.049810968 0.049790308 0.049806561 0.049835324 0.049804427
0.049852598 0.049909405 0.050030228 0.050042205 0.049949024 0.04996103
0.050009292 0.05005746 0.050066233 0.05004463 0.050030563 0.04994959
0.050078973 0.050148096 0.0500848 0.050101783 0.050073631 0.050099932
0.050202157 0.050346058 0.050188232 0.050156176 0.050329711 0.050158121
0.050103139 0.050094366 0.050104667 0.049994927 0.049962904 0.050052732
0.049919058 0.049860124 0.049980126 0.050018694 0.049931355 0.049854238
0.04985087 0.049869604 0.049745563 0.049839836 0.049796142 0.049795583
0.049774699 0.049763106 0.049744558 0.04984149 0.049843479 0.050048757
0.050001718 0.049789093 0.049823321 0.050027877 0.049974572 0.050134115
0.050283946 0.050196856 0.050198328 0.050221629 0.050295498 0.0503502
0.050256819 0.050245587 0.050220132 0.050294109 0.050361022 0.050336055
0.050420329 0.050250396 0.050210498 0.050313935 0.050415739 0.050129622
0.050239895 0.050350655 0.050302558 0.050184287 0.05007134 0.050201166
0.050213188 0.050187171 0.050081361 0.050133716 0.050049141 0.050048064
0.050021339 0.050067309 0.05011129 0.050055634 0.050044969 0.049916796
0.050026659 0.050025366 0.04986643 0.049880188 0.049955107 0.049985509
0.049845457 0.049874853 0.049877409 0.049843695 0.04990603 0.049840067
0.049909372 0.049870301 0.049856424 0.049801011 0.049848057 0.049848057
0.04962318 0.049780309 0.049686916 0.049683888 0.049614441 0.049715046
0.049639285 0.049874868 0.049883939 0.049739629 0.049727611 0.049749378
0.049754534 0.049825065 0.049793921 0.049771205 0.049749617 0.049759615
0.049817622 0.049773615 0.049818136 0.049873766 0.050034337 0.050053485
0.049907673 0.049938023 0.04998922 0.050060742 0.050086625 0.050073083
0.050075147 0.049954139 0.050096393 0.05020063 0.050125513 0.050160952
0.050112832 0.050144915 0.050248161 0.05034925 0.050215106 0.050214119
0.050391771 0.050250225 0.050141051 0.050162591 0.050143186 0.050059002
0.049989462 0.050050989 0.049952269 0.049858321 0.050001178 0.050063882
0.049957532 0.049824566 0.049842849 0.049831551 0.049733505 0.049856696
0.049750373 0.049767684 0.049755942 0.049735233 0.049723454 0.049837761
0.049800772 0.049964819 0.049954422 0.049793188 0.049842376 0.050055385
0.05001365 0.050150096 0.05032102 0.050228503 0.050257009 0.05033014
0.050316051 0.050396603 0.050379492 0.050345249 0.050315 0.050387047
0.05045436 0.050396658 0.050474994 0.050288353 0.050274748 0.050329644
0.050451972 0.050169297 0.050314296 0.050395247 0.050278265 0.05022959
0.050134446 0.05024169 0.05026067 0.050238952 0.050136991 0.050126389
0.05006668 0.050059009 0.050038148 0.050099425 0.050064638 0.049995605
0.050022639 0.049902659 0.050013289 0.049998701 0.049828202 0.049861722
0.049911495 0.049935274 0.049807981 0.049817439 0.049874913 0.049826235
0.049857751 0.049765315 0.049831636 0.049868427 0.049774438 0.04973501
0.049799047 0.049799047 0.049503122 0.049690515 0.049613938 0.049648501
0.049539682 0.049602792 0.049559183 0.049786564 0.049768396 0.049649842
0.049674697 0.04968733 0.049692206 0.049813576 0.049798388 0.049732313
0.049696427 0.049723793 0.049803514 0.049750987 0.049775776 0.049833547
0.05000772 0.05004961 0.049867548 0.049921479 0.049993806 0.050056167
0.05010144 0.050115965 0.050111294 0.05000025 0.050132506 0.050243702
0.050194718 0.050230209 0.050165847 0.050184328 0.050283246 0.050361659
0.050249666 0.050282788 0.050433759 0.050332248 0.050205879 0.050234243
0.050222214 0.050149299 0.050051659 0.050071452 0.049987871 0.049868647
0.050028391 0.050093979 0.049973007 0.049816847 0.049852777 0.049798694
0.04972728 0.049850777 0.049693711 0.049736887 0.049728416 0.049716815
0.04970092 0.049814451 0.049763743 0.049858507 0.049917635 0.049854182
0.04987837 0.050076049 0.050070841 0.050173398 0.050335854 0.05028113
0.050327491 0.050445691 0.050358824 0.050449826 0.050501216 0.050455038
0.050449044 0.050499488 0.050547831 0.050466705 0.050530087 0.050356854
0.050359733 0.050346132 0.050479475 0.050259929 0.050404683 0.050429575
0.050265793 0.050271545 0.050221 0.050287813 0.05029792 0.050269794
0.050168414 0.050119497 0.050092213 0.050078694 0.050055187 0.050098732
0.049973108 0.049939338 0.050000038 0.04989114 0.049980707 0.049949389
0.049806617 0.0498286 0.049848389 0.049859624 0.04977119 0.049764596
0.049863849 0.049820863 0.049803611 0.049670752 0.049757998 0.04982876
0.049681347 0.049661107 0.049746003 0.049746003 0.049388107 0.049590878
0.049520995 0.049588405 0.049470339 0.049482934 0.049492992 0.04966056
0.049627695 0.049567726 0.049611099 0.049594872 0.049622502 0.049777877
0.049781561 0.049698234 0.049631868 0.049690746 0.049787495 0.049742714
0.049741406 0.049785998 0.049943194 0.05001767 0.049838282 0.049915329
0.050013103 0.050055798 0.050107341 0.050159261 0.050142176 0.050065499
0.050179143 0.050282445 0.050287105 0.05031934 0.050227761 0.050221495
0.050319608 0.050386209 0.050301351 0.050350018 0.050466035 0.050407473
0.050299786 0.050322019 0.050328724 0.050245002 0.050137743 0.050118372
0.050031081 0.049903221 0.050073903 0.050103102 0.049978819 0.049850043
0.049861729 0.04977899 0.049721975 0.049814042 0.049637012 0.049701087
0.04967992 0.049693651 0.049675684 0.049775489 0.049728915 0.049779478
0.049913704 0.049933139 0.049918558 0.050089963 0.050142929 0.050219923
0.050345343 0.05035048 0.050404809 0.050541185 0.050441734 0.050531209
0.050610043 0.050560031 0.050595179 0.05061613 0.050645307 0.050570905
0.050597675 0.05044676 0.050463375 0.05039227 0.050514635 0.050378706
0.050488513 0.050457545 0.050288923 0.050299149 0.050309457 0.050344676
0.050318085 0.050267078 0.050178207 0.050121024 0.050130408 0.050106842
0.050055698 0.050054751 0.049874492 0.049901146 0.04997386 0.049886595
0.049929593 0.049884003 0.04978947 0.049790006 0.049786855 0.049783919
0.049734354 0.049702659 0.0498184 0.049799591 0.049747415 0.049567189
0.049692452 0.049742129 0.049599327 0.049574338 0.049672 0.049672
0.049276136 0.049487345 0.049414109 0.049487293 0.049402438 0.04938522
0.049438659 0.049511958 0.049485397 0.049494293 0.049536977 0.049477223
0.049538694 0.049707979 0.049728051 0.049667843 0.049559958 0.049651027
0.049754996 0.04974005 0.049720369 0.049736153 0.04985873 0.049959071
0.049820065 0.04991411 0.050027043 0.050067786 0.050106451 0.050193578
0.050175808 0.050132569 0.050227515 0.050322469 0.050385978 0.050419003
0.050303821 0.050272468 0.050368726 0.050421003 0.0503777 0.050415874
0.050503284 0.050477501 0.050411679 0.050434992 0.050443906 0.05032929
0.05023776 0.050189815 0.050089933 0.049966946 0.05014066 0.050098389
0.049986683 0.049929108 0.049860749 0.04977322 0.049718693 0.04974921
0.049591105 0.049658004 0.049606282 0.049658205 0.049643368 0.049730357
0.04970365 0.049750991 0.049934998 0.049987197 0.049956933 0.050117001
0.050234657 0.050296526 0.050376564 0.050433628 0.050480057 0.05059965
0.050563551 0.050651003 0.050699007 0.050660361 0.050729513 0.050733954
0.050751075 0.050717372 0.050683849 0.050553266 0.050585866 0.050483316
0.050568406 0.050498862 0.050557002 0.050491758 0.050349168 0.050306074
0.050374776 0.050400563 0.050326306 0.050243702 0.050176665 0.050132442
0.050173242 0.050131284 0.050030202 0.049978785 0.049800456 0.049881179
0.049942143 0.049885098 0.049868714 0.049808886 0.049763687 0.049750254
0.049737681 0.049719118 0.049698099 0.049632527 0.049720533 0.04973742
0.049678046 0.049463358 0.049631916 0.049627256 0.049529471 0.049472395
0.049573001 0.049573001 0.049163159 0.049379829 0.049310222 0.049340721
0.049325593 0.049320262 0.049379211 0.049354631 0.049354304 0.049416851
0.049448777 0.049354743 0.049446464 0.04961206 0.049631685 0.049628645
0.049486194 0.04959026 0.049689528 0.049726278 0.049699556 0.049692359
0.049782988 0.049886651 0.049811747 0.049905125 0.050019011 0.050088674
0.050106652 0.050217055 0.050213531 0.050187893 0.050271869 0.050364096
0.050470598 0.050507676 0.05040431 0.050355691 0.050434787 0.050463922
0.050479654 0.050503451 0.050558668 0.050544377 0.050527837 0.050566234
0.050558627 0.050405938 0.050349928 0.05028449 0.050174844 0.050065443
0.050217338 0.05010077 0.05001203 0.050035015 0.049852863 0.049786162
0.049722519 0.049670056 0.049560919 0.049600571 0.049511574 0.049613167
0.049602836 0.049690537 0.04969288 0.049757872 0.049958423 0.050000448
0.049997259 0.050176941 0.050346095 0.05039617 0.050441876 0.05053094
0.050552517 0.050632223 0.050711215 0.05079928 0.050780218 0.050765138
0.050849352 0.050850231 0.050868619 0.050887492 0.050792642 0.050681755
0.050729431 0.050609585 0.050639197 0.050604384 0.050615575 0.050541829
0.050421823 0.050299905 0.05040808 0.050438747 0.050333191 0.05022208
0.050181009 0.050150402 0.05020361 0.050142795 0.049987774 0.04989662
0.049757682 0.049865291 0.049905881 0.04987938 0.049807787 0.049730569
0.049725022 0.0497071 0.049691346 0.049662363 0.049658377 0.04956023
0.049570538 0.049624193 0.049574424 0.049363248 0.049570266 0.049515091
0.049450804 0.049361177 0.049468037 0.049468037 0.049047142 0.049270108
0.04923021 0.049162507 0.049225092 0.049276657 0.049298603 0.049201123
0.049234558 0.049316466 0.049345415 0.049251113 0.049349815 0.049499009
0.049499124 0.049562931 0.049415443 0.049500428 0.049590025 0.049686246
0.049664471 0.049655408 0.049729608 0.049810726 0.049807038 0.049880002
0.049992286 0.050113648 0.050117217 0.050233454 0.050245263 0.050227281
0.050309967 0.050408728 0.050527848 0.050565906 0.050526701 0.050475579
0.050511461 0.050518837 0.050605293 0.050627723 0.050640941 0.050607517
0.05063853 0.050700776 0.050674736 0.050493814 0.050473493 0.050399415
0.050295506 0.050192107 0.05028329 0.050124876 0.050064418 0.050131701
0.049848925 0.049810756 0.049733512 0.049597744 0.049540617 0.049518164
0.049401004 0.049565904 0.049558282 0.049660206 0.049687322 0.049774822
0.049959894 0.049999174 0.050056539 0.050266888 0.050468769 0.050505094
0.050534695 0.050638728 0.050637383 0.050680049 0.050877012 0.050954666
0.050870765 0.050884198 0.050966829 0.050972115 0.050994106 0.051053252
0.050919667 0.05083622 0.050884593 0.050749373 0.050718732 0.050690114
0.050679442 0.050602883 0.050482184 0.050300695 0.050416611 0.050444666
0.050342266 0.050221175 0.050197553 0.050164383 0.050197516 0.050139558
0.049946867 0.049829029 0.049738444 0.049838942 0.049857609 0.049857542
0.049741387 0.049644575 0.049675815 0.049650237 0.049630381 0.049592506
0.049606197 0.049490381 0.049390387 0.049476653 0.04943658 0.049268138
0.049498502 0.049424857 0.049341135 0.049246009 0.049382117 0.049382117
0.048936062 0.049155887 0.049176965 0.04897891 0.049101371 0.049222194
0.049188722 0.049055751 0.049111228 0.04918997 0.049238093 0.049179487
0.049245756 0.049375273 0.049344793 0.04945438 0.04935218 0.049393088
0.049467605 0.049617872 0.049603019 0.049621016 0.049681839 0.049734112
0.049797576 0.049836505 0.049959406 0.050141342 0.050143044 0.050242722
0.050254393 0.050245885 0.050338678 0.05045538 0.050562613 0.05059047
0.050654411 0.050615937 0.050587364 0.050596677 0.050751012 0.050786257
0.050745469 0.050679326 0.050752535 0.050828476 0.050797831 0.050617907
0.05060859 0.050527234 0.050452597 0.050330594 0.050321005 0.050174166
0.050131954 0.050182141 0.049849678 0.049832106 0.049730584 0.049544599
0.049515408 0.049403187 0.049282707 0.049522046 0.049521022 0.049621131
0.049660876 0.049777888 0.049941245 0.050022814 0.050145462 0.050369434
0.050587572 0.050599828 0.050632607 0.050747242 0.050754908 0.050797075
0.051045015 0.05110652 0.050995141 0.051022701 0.051103018 0.051104739
0.051123332 0.051194455 0.051065542 0.051015135 0.051033303 0.050884347
0.05079576 0.050754249 0.05075635 0.050659474 0.050524496 0.050325301
0.050420448 0.050418377 0.050346401 0.050243281 0.050221082 0.050163776
0.050141346 0.050125025 0.049924176 0.049779117 0.04973764 0.049796648
0.049787048 0.049816959 0.049655624 0.049547032 0.04961725 0.049579799
0.049555477 0.049486786 0.049529493 0.049419433 0.049214806 0.049331669
0.049289607 0.049184334 0.049409758 0.049344782 0.04919919 0.049129006
0.049330108 0.049330108 0.048849009 0.049041085 0.049125593 0.048816252
0.048972737 0.049120001 0.049049426 0.04892116 0.048963279 0.049050845
0.049141891 0.049134325 0.049125616 0.049238157 0.049189083 0.049304537
0.049301181 0.049286038 0.049346548 0.049529571 0.049522478 0.049580917
0.049610276 0.049649652 0.04977864 0.049780332 0.04993356 0.05017573
0.050183613 0.05024308 0.050227657 0.050242566 0.050357845 0.050502714
0.050585043 0.05059265 0.050770886 0.050749827 0.050658382 0.05070794
0.050908774 0.050950877 0.050867144 0.050780062 0.05088976 0.050955016
0.050935302 0.050789535 0.050752528 0.050665844 0.05063073 0.050456684
0.050323959 0.05023272 0.050186455 0.050167434 0.049854916 0.049819399
0.049672484 0.049503651 0.04947434 0.049256746 0.049161509 0.04948093
0.049492367 0.049551189 0.0495914 0.049752124 0.049919374 0.050097276
0.050261512 0.050454903 0.050680976 0.050672699 0.050719984 0.050850507