# vtk DataFile Version 3.0
axinsert(project(permute(???,2,0,1),0,L2),2)
ASCII
DATASET STRUCTURED_POINTS
DIMENSIONS 128 256 1
ORIGIN 0 0 0
SPACING 1 1 1
POINT_DATA 32768
SCALARS nrrd12205 float
LOOKUP_TABLE default
0.049973004 0.049986012 0.050029095 0.049983021 0.049983118 0.050012026
0.049967051 0.049982101 0.049996134 0.050003029 0.049969114 0.050064467
0.050036114 0.049997188 0.05004403 0.049973007 0.049993023 0.050034028
0.050004024 0.049991023 0.049942035 0.049993642 0.050035067 0.050004061
0.049989011 0.049960032 0.04995203 0.050011471 0.050020032 0.049995255
0.050049271 0.050035022 0.049999148 0.049982022 0.04996606 0.050010458
0.050046064 0.049997009 0.04998 0.049967036 0.050022028 0.050001033
0.050015025 0.050005026 0.049952999 0.049963206 0.050075237 0.050036054
0.049978007 0.050023004 0.049998023 0.049982999 0.050013002 0.050017238
0.049927011 0.049937055 0.0499736 0.050045505 0.049999081 0.050000343
0.050044246 0.050021056 0.050014108 0.049964104 0.049938485 0.050014231
0.050007116 0.050022457 0.050065026 0.050016999 0.049982004 0.050032999
0.050025247 0.049970001 0.049982045 0.049944013 0.050036311 0.04998916
0.049972657 0.050021004 0.049973283 0.049979173 0.050027251 0.050052196
0.050028011 0.049974017 0.049989998 0.049973015 0.04995203 0.049981162
0.049996093 0.049999278 0.050053176 0.050059021 0.049979091 0.049971003
0.049987003 0.049956009 0.049979459 0.04999806 0.050005171 0.050032124
0.050012004 0.049990017 0.050002027 0.050009027 0.05001701 0.050002001
0.05002404 0.050023045 0.050006006 0.049977072 0.049989052 0.049995001
0.050034091 0.050034456 0.049969014 0.04996632 0.05000107 0.050083019
0.050010335 0.049921013 0.050011009 0.049979344 0.049965043 0.050037004
0.049994081 0.049994081 0.049964156 0.049943998 0.049987219 0.049996145
0.050055154 0.049993001 0.049916144 0.049963027 0.050057128 0.050018035
0.049901053 0.050115008 0.050026074 0.049953178 0.050079111 0.049951293
0.049983058 0.050017461 0.050076459 0.050010037 0.049866319 0.049975038
0.050082281 0.049978133 0.050029755 0.049973015 0.049897302 0.049992003
0.050018564 0.049927149 0.050072197 0.050047088 0.050027672 0.050015025
0.049871705 0.049957134 0.050109331 0.050080106 0.049985379 0.050018098
0.04999404 0.050006237 0.050013099 0.049978305 0.049928237 0.049953241
0.050053041 0.050114945 0.049974024 0.050005656 0.050028283 0.049978223
0.050058357 0.049984321 0.049922563 0.049887002 0.049902264 0.050047066
0.050013732 0.04998007 0.050044935 0.050025243 0.050101306 0.049966104
0.049885597 0.049994171 0.049965642 0.050071567 0.050114315 0.050044816
0.050014105 0.050063316 0.050049413 0.04996942 0.049990136 0.049882218
0.04996923 0.049956892 0.049956415 0.05000139 0.049949341 0.050031234
0.049984321 0.050096761 0.050130431 0.049986277 0.050019212 0.049970027
0.049928144 0.049954008 0.049912225 0.050018162 0.050134137 0.050116085
0.050024144 0.049936056 0.049918264 0.049902003 0.050007224 0.050039142
0.049976096 0.05008908 0.050019048 0.049993023 0.049986005 0.050028004
0.050027061 0.049980011 0.050055999 0.050040007 0.050028011 0.049915999
0.049920093 0.050021052 0.050117064 0.050102003 0.04995 0.049963072
0.049937055 0.050074 0.050019059 0.049937021 0.050100055 0.049935032
0.049917027 0.050049018 0.049964 0.049964 0.049968209 0.049927 0.049941331
0.050003007 0.050104551 0.050000019 0.049915321 0.050011039 0.050085075
0.050033052 0.049902011 0.050004032 0.05000848 0.04996004 0.049991451
0.050001275 0.049921252 0.049939979 0.050147474 0.050029472 0.049901459
0.049990278 0.050041508 0.049954541 0.050017744 0.050035864 0.049949594
0.049933475 0.049970921 0.04991373 0.050021887 0.05004105 0.050040673
0.050063863 0.049913436 0.049912199 0.050088599 0.050170258 0.049975324
0.050076418 0.04997135 0.049990371 0.049964353 0.049939703 0.04999651
0.050031412 0.049944151 0.050062027 0.050052393 0.049941424 0.050057709
0.050005388 0.050018601 0.049940813 0.05003877 0.049999136 0.049885187
0.049947176 0.050021864 0.049965125 0.049945109 0.04999356 0.050106496
0.049984712 0.049960714 0.05001045 0.049908098 0.050068706 0.050078396
0.050063927 0.050071895 0.050003778 0.049976461 0.050025795 0.049983077
0.04996324 0.049962375 0.049904224 0.049982775 0.049948227 0.050004773
0.050118621 0.049926396 0.050062947 0.050153438 0.050051857 0.050051119
0.049997754 0.050003059 0.049941227 0.049892098 0.050001066 0.050098255
0.050093193 0.050110258 0.049975026 0.049907126 0.049943998 0.05006801
0.050038014 0.049967017 0.05004802 0.050022084 0.050061028 0.049957044
0.050019003 0.050014023 0.049970001 0.05000902 0.050025042 0.050012998
0.049904138 0.049921002 0.049988035 0.050138149 0.050094031 0.050026182
0.050053079 0.049920011 0.04994813 0.05000405 0.050063055 0.050115999
0.049926016 0.049921006 0.050007001 0.049947012 0.049947012 0.049956139
0.049913 0.049961139 0.049942005 0.0500484 0.050041135 0.049907241
0.050059188 0.05005122 0.050069481 0.049939044 0.049905147 0.05001729
0.049964327 0.049972408 0.050023325 0.049841437 0.049951743 0.050162219
0.050019812 0.04992434 0.049967613 0.049981695 0.049936213 0.049972035
0.050029404 0.049984023 0.049936164 0.049944703 0.049948424 0.049987391
0.050097637 0.050039288 0.050083552 0.050026216 0.049916543 0.050068222
0.050151698 0.049962487 0.050021477 0.049987197 0.04999641 0.049958959
0.049916409 0.050008025 0.050059471 0.049922884 0.050026674 0.050097205
0.049932592 0.050040122 0.050016914 0.049955096 0.049973201 0.050109588
0.050045583 0.049890593 0.049874451 0.05002233 0.049951583 0.049906459
0.049968757 0.050068013 0.049958091 0.049959879 0.050045703 0.049926732
0.050019186 0.050084721 0.050114684 0.050053839 0.04996486 0.04990131
0.050048903 0.049943373 0.050021205 0.050054688 0.049889095 0.049987491
0.049979765 0.050048877 0.050123122 0.049935024 0.050060991 0.050138973
0.050099265 0.050036732 0.05002252 0.050054349 0.049940765 0.049961198
0.049956199 0.050061304 0.050105311 0.050110303 0.049990501 0.049959254
0.05000212 0.050048038 0.050022222 0.050001051 0.050022054 0.050035086
0.050133042 0.049965002 0.050009012 0.050004002 0.049985047 0.049988024
0.050008003 0.049968999 0.049897097 0.049982 0.049924001 0.050118089
0.050093047 0.050088055 0.050127018 0.049974013 0.049944159 0.049977023
0.050017033 0.050060049 0.049923018 0.049887024 0.05002711 0.050000012
0.050000012 0.049950093 0.049926005 0.049964059 0.049915999 0.049974065
0.050050151 0.049891077 0.050018247 0.050007466 0.050104715 0.050015304
0.049892243 0.049961176 0.049931653 0.049987365 0.050000682 0.049825598
0.050004642 0.050129324 0.049994152 0.049930591 0.049918093 0.049936056
0.04991053 0.04998526 0.050034296 0.049982123 0.049993526 0.049929548
0.049993657 0.0499763 0.050088502 0.050045546 0.050080549 0.050077584
0.049914312 0.050054599 0.050098494 0.050021064 0.049941767 0.049988899
0.050025672 0.049976431 0.049922496 0.049986102 0.050042719 0.049911518
0.050017815 0.050077803 0.049963158 0.049991272 0.050027568 0.049965393
0.050035156 0.050138764 0.050002135 0.049914408 0.049823929 0.049990155
0.049957417 0.049906902 0.049933262 0.050046518 0.049993698 0.049882744
0.050024956 0.049986403 0.049956147 0.050028328 0.050152507 0.050052267
0.049962368 0.049873166 0.050019387 0.049951218 0.050039008 0.050087713
0.049920794 0.050024826 0.050036334 0.050093845 0.050083712 0.049963452
0.050067123 0.050122112 0.050090641 0.050019488 0.050077606 0.050116315
0.049984951 0.050031658 0.049962435 0.050056383 0.050098345 0.050055437
0.049997643 0.050008282 0.050045375 0.050028119 0.050024364 0.050046064
0.050020173 0.050042063 0.050155167 0.049999021 0.050008066 0.049982034
0.050021164 0.050048009 0.049973004 0.049934 0.049908001 0.050032001
0.04990302 0.050057005 0.050117046 0.050133009 0.050163001 0.05001203
0.049952008 0.04994604 0.049936 0.050009057 0.049944088 0.049860999
0.050032128 0.050081003 0.050081003 0.049926043 0.049931012 0.049950071
0.049938999 0.04992101 0.050033115 0.049875043 0.049927149 0.049951479
0.050098654 0.050067738 0.049933519 0.049926367 0.049901608 0.049965464
0.049973026 0.049845573 0.050016746 0.050078761 0.049954355 0.049934201
0.049886409 0.049920462 0.049911488 0.050004233 0.050051436 0.049954083
0.050038803 0.04992779 0.050011918 0.050002806 0.05003231 0.050039474
0.050065663 0.050066557 0.049906991 0.050048534 0.050069075 0.050078753
0.049913421 0.050000686 0.050057087 0.049989462 0.049967922 0.049960881
0.050006095 0.049900342 0.049998056 0.050039865 0.050011616 0.049977258
0.050014503 0.050011728 0.050071068 0.050116397 0.049948677 0.049924936
0.04978656 0.049947657 0.049982227 0.049919486 0.049907118 0.050008859
0.050047144 0.049830236 0.049969591 0.050015327 0.049927559 0.049956378
0.050119933 0.050073754 0.049977642 0.049903326 0.049961701 0.049984824
0.050054848 0.050088584 0.04995776 0.050045446 0.050075755 0.050129414
0.050050359 0.050024793 0.050088286 0.050078198 0.050059043 0.050046492
0.050151292 0.050156184 0.050041981 0.050065376 0.050013758 0.050079644
0.050089475 0.050039615 0.05003329 0.050017245 0.050059263 0.050055187
0.05004508 0.050070062 0.050011076 0.050045054 0.050157126 0.050021034
0.049991116 0.049965087 0.050067186 0.050129998 0.049973 0.049939003
0.049909018 0.050035 0.049917012 0.050010026 0.05013502 0.050160065
0.050149012 0.050002001 0.049951036 0.049938001 0.049879011 0.049980052
0.049993075 0.049870014 0.050009023 0.050131999 0.050131999 0.049898002
0.049909003 0.049935061 0.049964003 0.049869053 0.050012145 0.049884114
0.049860086 0.049884371 0.050041568 0.050057102 0.049963024 0.049953874
0.049900647 0.049917731 0.049977154 0.049870577 0.049966834 0.050039288
0.049920343 0.049926709 0.049880654 0.049925711 0.049943469 0.049990196
0.050058901 0.049935304 0.050042015 0.049920358 0.049988277 0.050056927
0.049982585 0.050008398 0.050064087 0.050047338 0.049913242 0.050049111
0.050068062 0.050101031 0.049955867 0.050026078 0.050065406 0.049991168
0.050015334 0.04995282 0.049982283 0.049912073 0.049956884 0.049999535
0.050046373 0.05000421 0.049970075 0.050031085 0.050075188 0.050062329
0.049937256 0.04992928 0.049752116 0.049909804 0.0499788 0.04991537
0.04990121 0.049941402 0.050061993 0.049849562 0.04991322 0.049999844
0.049948987 0.049924973 0.050041337 0.05008195 0.04999461 0.049952526
0.049914457 0.050029591 0.050052393 0.050104924 0.049995854 0.050035864
0.05011313 0.050140489 0.050050054 0.05009418 0.050117861 0.050028529
0.050070278 0.050108802 0.050201241 0.050162219 0.05008021 0.050068803
0.050079055 0.050110891 0.050103664 0.050099604 0.0500861 0.050020225
0.05005905 0.050109215 0.050067004 0.050065115 0.050007999 0.050028052
0.050164029 0.050015029 0.04996407 0.049959071 0.050108094 0.050182004
0.049994014 0.049979005 0.049909025 0.050021004 0.049943015 0.049981046
0.050147001 0.050144043 0.050087053 0.049981046 0.049949098 0.049971029
0.049862009 0.049959015 0.050053049 0.049904034 0.049991999 0.050126027
0.050126027 0.049883001 0.049876001 0.049911018 0.049946044 0.049822152
0.049991172 0.049913298 0.049834091 0.049816381 0.049950514 0.049997326
0.049963348 0.050002467 0.049921975 0.04988515 0.050000273 0.04989893
0.049896941 0.05000468 0.049897481 0.049895037 0.049889151 0.049941905
0.049981833 0.049949452 0.050039489 0.049943995 0.050029181 0.049904075
0.049936473 0.050086986 0.049982451 0.049979463 0.05007565 0.050050449
0.049932413 0.050067168 0.050076827 0.050099086 0.050040934 0.050048772
0.050052576 0.049989987 0.050031476 0.049964014 0.049967233 0.049961217
0.049933553 0.049967248 0.050054781 0.050024211 0.049904827 0.050000239
0.050045434 0.04999217 0.049954854 0.049941875 0.049736522 0.04987688
0.049933251 0.049882248 0.049907312 0.049866211 0.050035156 0.049896166
0.049863521 0.049970564 0.049990289 0.049940601 0.049971644 0.050064132
0.050005607 0.049989838 0.049896788 0.050067015 0.050039884 0.05013629
0.050028015 0.050019607 0.050172955 0.050136775 0.050078925 0.05014088
0.050151929 0.050024167 0.050131328 0.050160974 0.050217569 0.05015181
0.050094597 0.050081696 0.050143093 0.050140828 0.050144691 0.050192382
0.050129086 0.050047185 0.050056003 0.050157201 0.050075032 0.050054144
0.050038014 0.050000008 0.050167002 0.050001018 0.049954008 0.049960006
0.050131008 0.050191998 0.050003011 0.050026 0.049915019 0.050022002
0.049968034 0.049958039 0.050138008 0.050092001 0.050018083 0.049977086
0.049962081 0.050014023 0.04989301 0.049939018 0.050085038 0.049946032
0.049998999 0.050079074 0.050079074 0.049874999 0.049853012 0.049873006
0.049887151 0.049808212 0.049958151 0.049930509 0.049828161 0.049759552
0.049864486 0.049926363 0.049939271 0.050017841 0.049941417 0.049877696
0.050007544 0.049926832 0.049859345 0.049962133 0.049881119 0.049846537
0.049901064 0.049958386 0.050002769 0.049919233 0.049995136 0.04997208
0.050029531 0.049897011 0.049892526 0.050061546 0.0500395 0.049980238
0.05007311 0.050065547 0.049947802 0.050109405 0.050078895 0.050088465
0.050137084 0.050064985 0.050034821 0.049999136 0.050014518 0.049986482
0.049948193 0.050032753 0.049950462 0.049959313 0.050048452 0.050002374
0.04984485 0.049940195 0.049986657 0.049909525 0.049964197 0.049966592
0.049752802 0.04984099 0.049864743 0.049828734 0.049906138 0.04981409
0.049989384 0.049900416 0.049818318 0.049956895 0.050008569 0.04997889
0.049938537 0.050027553 0.05001308 0.050009426 0.04991062 0.050084591
0.050049048 0.050158918 0.05005141 0.050030444 0.05024419 0.050137833
0.050127916 0.050169613 0.050191056 0.050078783 0.05019645 0.050186865
0.050229926 0.050149508 0.05010175 0.050130278 0.050205857 0.050173566
0.050198492 0.050264176 0.050148103 0.050095119 0.050051998 0.050183106
0.050085008 0.050048053 0.050096005 0.049988024 0.050147004 0.049998999
0.049971003 0.049968023 0.050136022 0.05017703 0.049995001 0.050059013
0.049924038 0.050034035 0.049986061 0.049944058 0.050094042 0.050028007
0.049990028 0.049984016 0.049991027 0.050033003 0.049950022 0.049933162
0.050063014 0.049977019 0.050019 0.050031051 0.050031051 0.04986101
0.049845029 0.04982302 0.049825266 0.049826231 0.049907181 0.049914692
0.04982141 0.049728788 0.049810514 0.049867228 0.049898144 0.049987946
0.049937766 0.049872272 0.049981065 0.049931116 0.049862351 0.049910955
0.049861431 0.049800552 0.049909309 0.049968451 0.050002147 0.049919605
0.049955972 0.050005317 0.050035305 0.049912311 0.049885847 0.049996972
0.050111268 0.050009776 0.050048463 0.050076313 0.049950391 0.050158247
0.05007362 0.050076444 0.050225735 0.050079871 0.05003136 0.05002673
0.049983699 0.050013144 0.049930312 0.050096318 0.049989697 0.049974773
0.050044525 0.049948793 0.049810175 0.049885176 0.049922809 0.049833365
0.049948007 0.049983021 0.04978906 0.049794193 0.049793296 0.049776867
0.049882516 0.049787879 0.049942266 0.049846455 0.049774706 0.049958769
0.049988858 0.050010681 0.049934112 0.049977947 0.0500171 0.050018035
0.049951933 0.050093323 0.050094198 0.050161619 0.050075974 0.050083935
0.05029327 0.05014994 0.050181724 0.050198708 0.050234724 0.050160781
0.050232742 0.050213221 0.050265953 0.05016844 0.050129481 0.050202839
0.050264522 0.05020937 0.050249234 0.050309088 0.050152056 0.050137058
0.050061002 0.050196011 0.050110001 0.050044008 0.050152998 0.050004166
0.050110016 0.050014045 0.050000049 0.04998716 0.050134137 0.050160162
0.049984086 0.050077118 0.049935132 0.050040208 0.049987126 0.049942173
0.050035138 0.049975011 0.050003007 0.049985047 0.050014999 0.050023094
0.049996011 0.049951248 0.049999002 0.049985003 0.050029002 0.050007999
0.050007999 0.049839094 0.049843058 0.049770106 0.04977734 0.049839348
0.049845412 0.049865913 0.049811993 0.049737003 0.049791705 0.049817134
0.049847316 0.049935948 0.049907211 0.049845796 0.049926955 0.049899273
0.049878005 0.049860302 0.049836215 0.049776137 0.049911622 0.049973186
0.049991671 0.049939498 0.049939234 0.05003174 0.050032787 0.049943998
0.049918927 0.049939889 0.050144929 0.050049812 0.050023146 0.050077103
0.049954254 0.050179731 0.050068222 0.050074946 0.050295934 0.05010552
0.050052244 0.05007688 0.049966071 0.05004086 0.049928609 0.050131593
0.050015267 0.049995434 0.050049089 0.049891386 0.049804762 0.049856387
0.049876992 0.049786039 0.049908534 0.049966071 0.049821366 0.049739596
0.049733758 0.049740884 0.049835615 0.049769465 0.04988743 0.049766596
0.049741205 0.04995152 0.049961146 0.050022196 0.049931034 0.049922001
0.050015274 0.050017316 0.050009452 0.050117083 0.050157785 0.050161984
0.050109401 0.050173771 0.050318815 0.05016901 0.050225995 0.050236937
0.050275847 0.050239965 0.050254967 0.050269302 0.050321613 0.050206393
0.050192006 0.050284479 0.050303224 0.050248284 0.050293058 0.050344057
0.050161999 0.050155014 0.050096005 0.050206032 0.050144017 0.050039157
0.050191011 0.050038338 0.050082102 0.050036233 0.050025199 0.050019391
0.050137471 0.050151438 0.049977399 0.050083388 0.049956422 0.050033633
0.049971297 0.049951449 0.049993392 0.049941268 0.050026197 0.049969345
0.050013088 0.049995229 0.050010018 0.049985185 0.049927112 0.049972001
0.050015058 0.050000027 0.050000027 0.049806233 0.049838111 0.04972332
0.049736403 0.049812693 0.049789939 0.049803294 0.049810953 0.049778298
0.049792245 0.049769375 0.049795996 0.049879231 0.049855176 0.049798451
0.049861372 0.049840216 0.04986807 0.049822122 0.049807221 0.049776156
0.049906138 0.049971573 0.049983345 0.049955785 0.049941216 0.050039791
0.050025359 0.049980197 0.049967278 0.049921885 0.050116196 0.05007958
0.050025776 0.050075889 0.049978778 0.050161749 0.050067615 0.050096728
0.050342515 0.050142668 0.050089441 0.050147582 0.049985662 0.050068546
0.049957126 0.050138675 0.050013099 0.049997952 0.050056148 0.04985797
0.049814481 0.049857829 0.049863271 0.04977683 0.0498592 0.049907953
0.049828686 0.049688172 0.049693003 0.049717944 0.049776711 0.049738791
0.049816001 0.049696624 0.049721207 0.049913079 0.049956333 0.050013959
0.049903885 0.049868848 0.050008018 0.050008167 0.050071429 0.050166827
0.050215594 0.050178982 0.050155476 0.0502741 0.050348025 0.050199922
0.050261565 0.050276861 0.05031646 0.050311822 0.05029868 0.050355684
0.050372072 0.050253086 0.050282542 0.050370201 0.050313037 0.050283216
0.050340001 0.050381023 0.05019008 0.050154004 0.050155073 0.050222218
0.050177168 0.05004447 0.050210271 0.050071575 0.050077509 0.050055612
0.050044671 0.050066836 0.050146278 0.050140869 0.049974103 0.050081812
0.049991056 0.05001124 0.049945693 0.049969923 0.049985863 0.049921975
0.050023634 0.049940746 0.049980387 0.049969342 0.049987238 0.050010119
0.049876299 0.049951013 0.049972154 0.049981043 0.049981043 0.04975434
0.049816187 0.049683634 0.04968949 0.049738225 0.049748603 0.049732905
0.049816046 0.049825899 0.049784403 0.049723327 0.049749404 0.049819283
0.049799088 0.049747635 0.049800441 0.04977946 0.049825419 0.049792409
0.04977753 0.049785644 0.049889453 0.049966641 0.049981687 0.04995364
0.049943317 0.050026018 0.050022341 0.0500113 0.050005224 0.049947292
0.050049867 0.050089274 0.050063826 0.050082348 0.050027404 0.050127309
0.050080318 0.050143681 0.050369289 0.050186034 0.050131004 0.050233629
0.050049644 0.050096363 0.050012968 0.050129939 0.049999058 0.04998415
0.050056316 0.049855325 0.049822092 0.049877293 0.049879618 0.049794734
0.049811181 0.049827844 0.04980585 0.049644768 0.049673963 0.049693044
0.04971493 0.049690899 0.04973061 0.049648032 0.049713213 0.049846251
0.049968131 0.049994163 0.04984843 0.049825769 0.050003983 0.049997635
0.050124142 0.05024058 0.05025671 0.050220102 0.050217777 0.050360434
0.050399117 0.050260667 0.050303705 0.050315242 0.050364539 0.05039002
0.050375778 0.050455771 0.050402503 0.050301507 0.05037814 0.050456028
0.050304022 0.050314065 0.050398182 0.050414011 0.050232358 0.050153159
0.050224435 0.050249666 0.050211761 0.050076127 0.05021831 0.050097156
0.050091669 0.050069336 0.050068874 0.050118785 0.050146665 0.050123587
0.049970247 0.050075486 0.050026122 0.049972929 0.0499244 0.049985617
0.049998496 0.049903776 0.049988162 0.049913056 0.049927872 0.04994949
0.049940631 0.050001126 0.049858373 0.049925108 0.049910147 0.049940009
0.049940009 0.049672343 0.049770266 0.049642924 0.049635656 0.049639676
0.049705107 0.049654711 0.049811997 0.049843077 0.049749326 0.049680386
0.049708702 0.049752638 0.049755108 0.049710881 0.049746204 0.049726773
0.049763355 0.04976742 0.049748611 0.04978494 0.049862262 0.049965676
0.049988508 0.049930591 0.04993213 0.049996756 0.050025817 0.050037965
0.05003079 0.049996182 0.049987506 0.050087795 0.050123449 0.050102126
0.05008921 0.050113451 0.050111096 0.050205 0.050384551 0.050228626
0.050177142 0.050322782 0.050145388 0.050126564 0.050083388 0.0501277
0.050003082 0.049970239 0.050049078 0.04987644 0.049822424 0.049901512
0.049915921 0.049821682 0.049764402 0.049754728 0.049758725 0.049608111
0.049669698 0.049654178 0.049655207 0.04963699 0.049647015 0.04960978
0.049707446 0.049769249 0.049959488 0.04996061 0.049786709 0.049802769
0.050013274 0.050000999 0.050163571 0.050317314 0.05028747 0.050278846
0.050300952 0.050420299 0.050468042 0.050358273 0.050373744 0.050367299
0.050434228 0.050483964 0.050468717 0.050551154 0.050426077 0.050355043
0.050457016 0.050534032 0.050294336 0.050361048 0.050460905 0.05043336
0.050283 0.050174892 0.050287481 0.050291713 0.050257247 0.050131593
0.050219465 0.050116543 0.050109897 0.050081857 0.050105218 0.050153624
0.050125424 0.050099887 0.049963757 0.050069701 0.050046492 0.049924847
0.049910467 0.04998653 0.050004173 0.049878329 0.049929641 0.049894314
0.049878422 0.049925786 0.049880985 0.049954236 0.049863361 0.049885284
0.049841061 0.049885012 0.049885012 0.049562275 0.049699355 0.049591105
0.049584962 0.049537886 0.049637519 0.049565669 0.049779743 0.049807005
0.049680866 0.049634606 0.04966484 0.049682546 0.049726993 0.049694654
0.049699735 0.049679741 0.049700372 0.049743656 0.049716841 0.049761482
0.049825728 0.049963012 0.049998522 0.04989427 0.049910069 0.049967192
0.050029706 0.050059538 0.050053932 0.050049476 0.04996438 0.050093167
0.050185502 0.050138466 0.050156031 0.050135218 0.050157309 0.050265089
0.050396692 0.050265644 0.050233122 0.050403081 0.050252259 0.050167385
0.050159492 0.050152082 0.050045177 0.049981531 0.050044391 0.049908463
0.049818542 0.049922477 0.049957063 0.049844682 0.049720719 0.049707562
0.049701478 0.049574085 0.049665373 0.049595401 0.049597468 0.049585268
0.049578372 0.04956957 0.049690023 0.049698696 0.04989991 0.04990926
0.049752753 0.049803726 0.050034218 0.050027546 0.050192475 0.050379965
0.050324228 0.050349008 0.05041125 0.050466754 0.050539508 0.050488722
0.050476834 0.05045443 0.050530985 0.050594244 0.050559077 0.050636008
0.050462056 0.050424155 0.050507538 0.050599437 0.050317187 0.050433945
0.050519515 0.050434746 0.050337397 0.050227806 0.050342791 0.050343003
0.050311036 0.050196324 0.05021866 0.050136227 0.050126296 0.050099704
0.050141774 0.050142463 0.050081421 0.050077017 0.04995257 0.050059758
0.050039951 0.049880248 0.049895864 0.049960747 0.049977906 0.049844809
0.049867157 0.049886677 0.049846984 0.049888328 0.049811251 0.049882453
0.049868401 0.049819406 0.049772024 0.049829036 0.049829036 0.049435195
0.049608517 0.049521174 0.049538504 0.049447082 0.04953612 0.049472686
0.049706466 0.049713563 0.049589604 0.04958031 0.049606331 0.049610611
0.049705226 0.049690079 0.049656101 0.049627475 0.049648713 0.0497205
0.049687468 0.04972139 0.049781367 0.04994477 0.049999867 0.049854215
0.04988509 0.049953382 0.050028887 0.050075009 0.050086606 0.050095264
0.049986225 0.050116468 0.050239071 0.050196998 0.050228886 0.050185751
0.050207637 0.050317276 0.050414104 0.0503054 0.050302941 0.050468985
0.050355256 0.050230075 0.05023919 0.050216045 0.050126415 0.050028339
0.050056603 0.049946699 0.049821626 0.0499424 0.049989037 0.049855873
0.049688958 0.049685292 0.04964333 0.049538724 0.049646202 0.049516741
0.049536739 0.049529873 0.049522094 0.049522016 0.049652208 0.049635082
0.049795054 0.049853265 0.049766723 0.049825583 0.050058264 0.050077379
0.050222557 0.05042142 0.050378051 0.050431699 0.050541624 0.050520245
0.050615408 0.050634053 0.050604008 0.050586838 0.050653238 0.050712008
0.050648075 0.050713282 0.050527599 0.050514072 0.050543949 0.050649669
0.050391883 0.050527588 0.050570112 0.050430801 0.050393116 0.050310314
0.050394788 0.050393052 0.05035821 0.050247286 0.050217606 0.050162263
0.050146654 0.050120078 0.050159063 0.050082926 0.050028853 0.050055053
0.049942859 0.050038736 0.050005574 0.049848292 0.049872626 0.049909398
0.049919974 0.04980664 0.049809013 0.049879357 0.049831599 0.049839105
0.049726576 0.049804784 0.049849596 0.049734399 0.049701054 0.049774021
0.049774021 0.049306158 0.049503807 0.049428232 0.049480326 0.049365561
0.049414106 0.049387697 0.049593389 0.049578268 0.049492091 0.049513619
0.049523655 0.049532846 0.049671359 0.049677651 0.049616437 0.049564444
0.049604252 0.049696844 0.049666621 0.049678624 0.049731806 0.04989583
0.049977861 0.049818452 0.049866378 0.049958371 0.050028447 0.050083958
0.050124776 0.050132841 0.050042622 0.050159022 0.05028525 0.050277553
0.050316337 0.050254799 0.050257731 0.050362855 0.050442908 0.050357226
0.050380565 0.050520986 0.050448958 0.050320812 0.050332218 0.050316505
0.050229918 0.050108917 0.05009409 0.049990397 0.049842857 0.049973495
0.050003905 0.049856316 0.049684033 0.049673982 0.049590357 0.04950114
0.049596231 0.04942609 0.049467016 0.049456649 0.04946531 0.049465209
0.049593035 0.049575333 0.049683005 0.049810454 0.049817625 0.049861636
0.050078727 0.050145406 0.050268102 0.050451454 0.050452616 0.05052495
0.050670948 0.05060501 0.050706927 0.050778355 0.050738242 0.050751459
0.050792005 0.050834045 0.050757557 0.050795991 0.050624724 0.050623793
0.05059224 0.050700258 0.050508689 0.050629143 0.05061264 0.050445754
0.050442539 0.050407272 0.050453242 0.050431713 0.050382338 0.050277084
0.050221089 0.050199367 0.050172795 0.050131537 0.050139442 0.049994577
0.04998415 0.050032809 0.049934916 0.049998473 0.04995079 0.049827002
0.049838856 0.04984761 0.049845763 0.049767252 0.049750578 0.049852587
0.049816307 0.049781986 0.049629979 0.04973321 0.049788918 0.049647357
0.049621195 0.049710002 0.049710002 0.049180161 0.049390249 0.049318336
0.049391299 0.049288508 0.049294434 0.049314603 0.049450707 0.049423601
0.049399167 0.0494362 0.04941358 0.049444206 0.049611188 0.049637221
0.049577609 0.049491744 0.049557429 0.049664203 0.049653385 0.049646262
0.049679451 0.049821153 0.049928714 0.049790416 0.049855117 0.049970087
0.050033528 0.050086241 0.050162353 0.050169345 0.050111171 0.050212495
0.050328236 0.050373673 0.050418161 0.050337568 0.050314985 0.050415255
0.050484132 0.050430596 0.050462931 0.050572179 0.050535735 0.050436582
0.050446462 0.050440479 0.050336875 0.050214358 0.050161064 0.050046653
0.049892236 0.050025817 0.050002832 0.049850866 0.049718909 0.04965866
0.049548395 0.049463484 0.04951128 0.049332261 0.049385045 0.049356412
0.049394611 0.04939881 0.049517155 0.049516726 0.049599156 0.049792312
0.049871683 0.049899131 0.050103687 0.050233234 0.050341979 0.050488986
0.050546717 0.050625823 0.050778039 0.050729819 0.050831411 0.050912645
0.050872564 0.050924182 0.050939102 0.050964244 0.050901376 0.050894234
0.050745431 0.050756339 0.050673451 0.050762556 0.050644893 0.050722055
0.050657261 0.05049238 0.050475702 0.050497334 0.05051443 0.050454184
0.050380073 0.050289519 0.050234329 0.050244238 0.050199416 0.050122388
0.050082766 0.04991059 0.049955606 0.050008103 0.049931005 0.049942669
0.049883023 0.049805194 0.049799778 0.049789328 0.049774487 0.049729701
0.04968502 0.049785413 0.049776118 0.049714766 0.049525306 0.049667675
0.049692195 0.049567401 0.049526349 0.049625002 0.049625002 0.049056195
0.049273774 0.049204469 0.049260043 0.049204767 0.049199801 0.049247354
0.049290389 0.049271226 0.049308974 0.049346328 0.049287364 0.049345229
0.049522728 0.049555507 0.049533159 0.049414486 0.049496725 0.049607877
0.049635425 0.049620286 0.049630892 0.049738605 0.04985784 0.049769081
0.049847033 0.049971208 0.050046008 0.050086852 0.050189741 0.050206535
0.05017747 0.050265722 0.050373618 0.050467256 0.050521519 0.050436914
0.050395317 0.05048367 0.050537761 0.050528757 0.050560132 0.050636154
0.050620314 0.050566945 0.050583854 0.050576948 0.050439239 0.050335269
0.050256394 0.050126191 0.049975544 0.050096154 0.04999781 0.049854107
0.049787551 0.049633399 0.049519189 0.049426895 0.049397055 0.04924405
0.049285624 0.04922406 0.04930345 0.049316384 0.049432885 0.049462728
0.049551867 0.049788658 0.049898155 0.049935967 0.050147876 0.050340634
0.05044606 0.050556261 0.050661571 0.050730627 0.050858956 0.050894264
0.050991215 0.051035926 0.051008105 0.051089007 0.051089473 0.051106755
0.051080607 0.051014129 0.050887931 0.050910924 0.050793804 0.050843474
0.050777588 0.050802723 0.05071244 0.050562073 0.050492276 0.050563414
0.050567955 0.050467785 0.050365448 0.050297774 0.050255768 0.050285719
0.050218314 0.050090313 0.050006475 0.049850482 0.049937353 0.049978923
0.049925081 0.049880046 0.049807347 0.049775697 0.0497564 0.04973625
0.049711775 0.049690366 0.049611896 0.049665481 0.049691934 0.049625296
0.049422398 0.049606096 0.049579237 0.049489606 0.049419291 0.049524009
0.049524009 0.0489312 0.0491542 0.049102534 0.04909021 0.049103744
0.049132705 0.049169928 0.049126137 0.049130023 0.049208708 0.049242266
0.049165096 0.049240634 0.049411997 0.049433731 0.049469423 0.04933631
0.049415287 0.049518958 0.049598292 0.049587723 0.049585368 0.049667247
0.049777746 0.049752012 0.049829803 0.049953531 0.050062634 0.050093699
0.050209355 0.050240751 0.050231554 0.050313089 0.050421182 0.05054678
0.050608113 0.050554845 0.050508633 0.050570559 0.050602194 0.050651781
0.050684642 0.050725814 0.050706312 0.050700743 0.050736912 0.050719298
0.050545391 0.050471425 0.050378382 0.050240081 0.050094269 0.050173029
0.050006632 0.04987755 0.049868934 0.049602099 0.049499568 0.049392439
0.049272519 0.049159508 0.049158953 0.049061712 0.049196795 0.049220853
0.049346928 0.04941164 0.049528405 0.049779005 0.049897552 0.049981184