# vtk DataFile Version 3.0
axinsert(project(???,0,L2),2)
ASCII
DATASET STRUCTURED_POINTS
DIMENSIONS 256 1 1
ORIGIN 0 0 0
SPACING 1 1 1
POINT_DATA 256
SCALARS nrrd79608 float
LOOKUP_TABLE default
0 0 0 0 0 0 0 0 0 0 0 0 0 0 0 0 0 0 0 0 0 0 0 0 0 0 0 0 0 2.4494898e-06
1.8867962e-05 0.00013517396 0.00094857631 0.0063052671 0.038928654
0.21516085 0.97598118 2.2967381 1.4376118 1.5376707 1.3542858 0.94138873
1.1584074 1.5642284 1.8226999 1.7568994 1.5244993 1.8023657 1.7552892
1.6457576 2.0399373 2.4765453 2.0957558 1.6256726 1.2957319 1.104178
0.9987008 0.93618745 0.89519018 0.86612904 0.84364164 0.82484084 0.80812848
0.79291403 0.7790997 0.76614141 0.75402004 0.74260056 0.73179483 0.72152472
0.71172005 0.70232815 0.69330394 0.68464339 0.6764425 0.66826928 0.66050988
0.65300792 0.64593774 0.63912588 0.63258326 0.62616831 0.61979604
0.61330122 0.60677975 0.60125077 0.59623408 0.59230506 0.58913815
0.58613938 0.58243734 0.57818007 0.57370204 0.5687905 0.56393468 0.55963451
0.55556571 0.55245548 0.55013442 0.54793221 0.54567564 0.54327142
0.54079646 0.53762567 0.5348683 0.53224808 0.52934062 0.52613747 0.52214295
0.51625025 0.50841129 0.49860162 0.48815319 0.47864172 0.47014597
0.46172523 0.45265058 0.45178184 0.48694539 0.57500231 0.67669541
0.75174874 0.78121614 0.80565673 0.82086581 0.79063988 0.72534156
0.63773507 0.63773507 0.64735657 0.63276684 0.540667 0.39103436 0.27847078
0.25529003 0.29948494 0.36082742 0.36381644 0.33618131 0.29205641
0.26236397 0.25307587 0.25018886 0.24771529 0.2437232 0.24038275 0.23757236
0.23683743 0.23834907 0.24186406 0.2469071 0.25352299 0.261397 0.2698667
0.27966231 0.28874657 0.29687056 0.30461782 0.31302321 0.32285076 0.3360669
0.35399082 0.37517309 0.39928368 0.42771718 0.46261907 0.50178897 0.5406962
0.57927072 0.62031972 0.66554719 0.71455789 0.76423186 0.8108418 0.85093331
0.88248014 0.90327114 0.91368943 0.91634077 0.90893394 0.89193881
0.86653709 0.83443034 0.79923135 0.76548624 0.73568761 0.70776677
0.67640817 0.63578641 0.58448482 0.53351855 0.49245015 0.45748708
0.42584938 0.38728687 0.33207178 0.25422043 0.15139279 0.058412332
0.0095493011 0.00086806796 7.237403e-05 5.0990193e-06 0 0 0 0 0 0 0 0 0 0 0
0 0 0 0 0 0 0 0 0 0 0 0 0 0 0 0 0 0 0 0 0 0 0 0 0 0 0 0 0 0 0 0 0 0 0 0 0 0
0 0 0 0
