# vtk DataFile Version 3.0
axinsert(project(permute(???,2,0,1),0,L2),2)
ASCII
DATASET STRUCTURED_POINTS
DIMENSIONS 128 256 1
ORIGIN 0 0 0
SPACING 1 1 1
POINT_DATA 32768
SCALARS nrrd09393 float
LOOKUP_TABLE default
0.049977001 0.049983017 0.049988043 0.049993061 0.050022081 0.050017148
0.049984053 0.050000083 0.050006118 0.049987003 0.049990263 0.050001085
0.050015002 0.050033029 0.050002083 0.049981162 0.050062999 0.050042134
0.049970027 0.049974058 0.049979016 0.050020054 0.050002061 0.049985029
0.049992006 0.049962044 0.049968179 0.050008342 0.050036438 0.050023116
0.049976118 0.049959112 0.050014198 0.04999423 0.05001929 0.050034139
0.050029088 0.049979042 0.04999122 0.049995009 0.04998517 0.049998149
0.050044511 0.050043035 0.050025072 0.049996119 0.049922999 0.050018199
0.05000414 0.050025184 0.050003368 0.049956132 0.049995027 0.049996018
0.050032172 0.050009001 0.049968001 0.049986314 0.050005011 0.050020345
0.049995005 0.050001223 0.050047021 0.049980052 0.049961001 0.0500043
0.049982 0.050020646 0.050038006 0.049961086 0.050005306 0.050013017
0.049982116 0.050004154 0.049991034 0.0499833 0.049991108 0.050010491
0.049979012 0.049976502 0.049992207 0.050023597 0.050042018 0.050005198
0.049945004 0.049984682 0.050015144 0.04999733 0.050042395 0.04998504
0.049958449 0.05005233 0.050006013 0.049959175 0.049989074 0.050047223
0.05006301 0.050011005 0.049958013 0.04999011 0.050016008 0.050023064
0.050013091 0.049989007 0.049986005 0.04997804 0.049987044 0.050007999
0.04998403 0.050018001 0.049988005 0.050035041 0.050005231 0.049962007
0.049952 0.050001111 0.050056048 0.050034005 0.050021999 0.049995091
0.049975008 0.050009999 0.049973041 0.049988013 0.050012033 0.050023008
0.049963098 0.049963098 0.050002042 0.049980119 0.049923036 0.049950041
0.050045107 0.049981039 0.049986389 0.050017007 0.049986452 0.049954001
0.049979545 0.050097 0.050076041 0.050043039 0.049895026 0.049953666
0.050134018 0.050054424 0.049998086 0.049987189 0.049932025 0.049976159
0.049985208 0.049963467 0.049949225 0.049917944 0.049993411 0.049999103
0.050133664 0.050062004 0.049930524 0.049911153 0.049964543 0.049996682
0.049926601 0.050080005 0.050077837 0.049951468 0.050099935 0.050040144
0.049909592 0.049943309 0.050031062 0.050120763 0.050080895 0.049998771
0.049913581 0.05007216 0.049996264 0.050002262 0.050040588 0.049901072
0.049967635 0.049947459 0.05001403 0.05006412 0.049922694 0.050000362
0.050032325 0.049981225 0.050008934 0.050004955 0.050038498 0.050015673
0.04994078 0.049997546 0.049928743 0.050005529 0.050080772 0.049928404
0.050016694 0.050042246 0.049939919 0.050042178 0.049962714 0.04990793
0.050081536 0.050042931 0.049943425 0.049987089 0.049956672 0.05005347
0.050138436 0.050000768 0.049916718 0.049998347 0.0499615 0.049935065
0.050070893 0.049974289 0.050047904 0.050138082 0.049985491 0.05000636
0.049961016 0.050044425 0.050120052 0.049922593 0.049956873 0.050065186
0.049985301 0.05003532 0.050067205 0.049998101 0.050051022 0.049945012
0.049939014 0.050025001 0.049977027 0.049983032 0.050051417 0.050038118
0.050024495 0.049905006 0.049966305 0.050015207 0.050030079 0.050041024
0.050027046 0.049988016 0.049969066 0.050051022 0.049950007 0.049940009
0.050091021 0.050023012 0.049958095 0.049958095 0.050012138 0.050016005
0.049915094 0.049952 0.050012037 0.049896009 0.049976438 0.050021093
0.049994525 0.049972016 0.049999297 0.050140001 0.050002351 0.050003417
0.049863447 0.049983349 0.050120227 0.050002426 0.050021302 0.049975798
0.049954731 0.049964599 0.049969435 0.04993353 0.049891815 0.049962051
0.050047517 0.049956959 0.050144009 0.050053984 0.049894884 0.049951483
0.049903769 0.049998943 0.049843926 0.05000459 0.050067917 0.049959365
0.050221808 0.050082479 0.049879737 0.049908523 0.049990866 0.050086487
0.050037559 0.050061375 0.05006573 0.050076917 0.050005756 0.049946938
0.050039168 0.049920995 0.049925175 0.049921285 0.049908575 0.050078556
0.04994848 0.050046284 0.050019857 0.049929358 0.050018106 0.049950592
0.049965687 0.05005639 0.049974263 0.049984239 0.049932085 0.049987342
0.050084211 0.04997186 0.049985539 0.050032519 0.049996756 0.050040539
0.0499199 0.049897391 0.050127484 0.050059456 0.050021421 0.05004153
0.049967904 0.050059106 0.050129917 0.049951319 0.050020631 0.050051935
0.049882986 0.049962118 0.050012033 0.04997056 0.05020991 0.050114602
0.049947117 0.050093945 0.049990855 0.050017711 0.050055761 0.049849093
0.050019883 0.050100528 0.049961012 0.050041422 0.05011877 0.050027121
0.050065674 0.050025228 0.049994104 0.050042 0.050002061 0.049886025
0.050053425 0.049998999 0.04999464 0.049977001 0.05006228 0.050038092
0.049904153 0.050045017 0.050018024 0.049983006 0.049980037 0.050072029
0.049998 0.049933001 0.050101008 0.049996018 0.050000008 0.050000008
0.049960073 0.050007101 0.049935203 0.049994014 0.050012082 0.049838047
0.049908396 0.050000288 0.05002955 0.050003272 0.050039414 0.050061136
0.049888372 0.049989801 0.049920589 0.050001502 0.050114404 0.050020751
0.049942233 0.049896013 0.049980026 0.050017856 0.049984623 0.049904663
0.049847752 0.049987826 0.050032455 0.049936298 0.050101701 0.050085396
0.049861118 0.049935039 0.049909659 0.049972553 0.049848333 0.049946185
0.050108198 0.049974386 0.050190613 0.050079454 0.04990628 0.049945623
0.050010398 0.050044529 0.049989365 0.050076 0.050135747 0.050058283
0.049999136 0.049955875 0.050039608 0.049921934 0.049905702 0.049904045
0.049873121 0.050057165 0.049980927 0.050048031 0.049954906 0.049942978
0.049992613 0.049854733 0.049972452 0.05006294 0.04998821 0.050006416
0.04993828 0.049975585 0.050124537 0.050007373 0.049897742 0.050023358
0.050094176 0.050027151 0.049898222 0.049951173 0.050096739 0.05005471
0.050094374 0.050056051 0.050000031 0.050049979 0.050125383 0.049941998
0.050092839 0.050082527 0.049913358 0.050046433 0.049999982 0.049992282
0.050230373 0.050101578 0.049926408 0.050060827 0.050016936 0.050052632
0.050042491 0.049896471 0.050062701 0.050074801 0.050004806 0.050070345
0.050163541 0.050031148 0.050001584 0.050107434 0.050093241 0.050052065
0.050007287 0.04986202 0.050001208 0.049998093 0.050002206 0.050001033
0.050083186 0.050048038 0.049891178 0.050108019 0.050050005 0.049971007
0.049957011 0.050103009 0.050018005 0.049950007 0.050036035 0.050013285
0.049997136 0.049997136 0.049922019 0.049970083 0.04996014 0.050011035
0.049984194 0.049793135 0.049871504 0.049989227 0.049995586 0.050003886
0.05005376 0.049961876 0.049853913 0.049960013 0.049940456 0.050000023
0.050081436 0.05002445 0.049853902 0.049861968 0.049973276 0.050015457
0.049999744 0.049919382 0.04986937 0.049998652 0.049994204 0.049936607
0.050040934 0.050141141 0.049847141 0.049878653 0.049952962 0.049925428
0.049884841 0.049923521 0.050149057 0.050017968 0.050106253 0.050038569
0.04994756 0.050003696 0.050000526 0.050006278 0.049998328 0.050020706
0.050147142 0.050042193 0.049957942 0.049996 0.050032623 0.049923573
0.04991677 0.049888138 0.049904928 0.05000921 0.049981467 0.050031122
0.049887281 0.049947601 0.049979467 0.049820963 0.049967416 0.050071735
0.050018169 0.050035186 0.049938895 0.049962349 0.050113086 0.05003335
0.049864538 0.050006501 0.050147794 0.050041616 0.049921338 0.050012607
0.05009063 0.050014574 0.050072554 0.050071876 0.050048266 0.050033804
0.050130624 0.050007701 0.050139386 0.050112601 0.05000193 0.050103359
0.05003899 0.05003836 0.050175108 0.050108436 0.049924858 0.050024252
0.050018936 0.050075162 0.050079789 0.049979325 0.050107758 0.050087992
0.050051536 0.05010055 0.050181285 0.050030373 0.049962319 0.050123468
0.050116424 0.050039515 0.050022595 0.049927328 0.049987119 0.050014254
0.050020065 0.049992159 0.050054062 0.050042342 0.049934138 0.050152071
0.050090019 0.049966007 0.049942009 0.050117008 0.050000999 0.049974054
0.049957003 0.050050382 0.050044075 0.050044075 0.049897 0.049941048
0.049957041 0.049981102 0.049946275 0.049757246 0.049872525 0.049984198
0.049882632 0.049968377 0.050046243 0.04989665 0.049874004 0.049926408
0.049922556 0.050001755 0.05005056 0.049978219 0.0497858 0.049857222
0.049938899 0.049976256 0.049996816 0.049936507 0.049917631 0.050001614
0.049950697 0.0499616 0.049990993 0.050162759 0.0498432 0.049847025
0.050010446 0.049892772 0.049927864 0.049926788 0.050151572 0.050054234
0.050051391 0.049987301 0.049967613 0.050033785 0.049963217 0.049986824
0.050038457 0.049950849 0.050105363 0.050016511 0.049943715 0.050042234
0.05000155 0.049917411 0.049940862 0.049895022 0.049946234 0.049958948
0.049925134 0.05000237 0.049869575 0.049928568 0.049987752 0.049854435
0.049931716 0.050079864 0.050026976 0.050024137 0.049942274 0.049964476
0.050075032 0.050047979 0.049897112 0.050009362 0.050151557 0.050063867
0.049960967 0.050063435 0.050098468 0.050001293 0.05002135 0.050085407
0.050127245 0.050034359 0.050128758 0.050105158 0.050162181 0.050134692
0.050098754 0.050135996 0.05011614 0.050079435 0.0501124 0.050127275
0.049952716 0.050049495 0.050030664 0.050070997 0.050143652 0.050046079
0.050111953 0.050123114 0.050079603 0.050139878 0.050197262 0.050032701
0.049968235 0.050088473 0.050076611 0.050022971 0.050041698 0.050011687
0.050013185 0.050039444 0.050028067 0.050009303 0.050022013 0.050010491
0.049992099 0.050172176 0.050112072 0.049986139 0.049966998 0.050115027
0.049973 0.049975049 0.049919005 0.050074153 0.05010901 0.05010901
0.049867004 0.049921058 0.049920011 0.04991826 0.049921274 0.049737412
0.049880426 0.049971424 0.049763676 0.049900372 0.050023582 0.049863871
0.049888048 0.049900889 0.049896546 0.050002325 0.050025672 0.049919039
0.049757853 0.049850214 0.04989313 0.049943309 0.049982775 0.049931809
0.049940117 0.04999483 0.049919527 0.04999255 0.049964763 0.050120916
0.049849611 0.049848806 0.050055139 0.049890153 0.049965978 0.049946338
0.050109245 0.050044801 0.050023254 0.049963728 0.049978711 0.050037015
0.049929764 0.049992643 0.050067391 0.049907096 0.050035339 0.04997734
0.049971957 0.050067082 0.049964715 0.049908295 0.049943846 0.049925607
0.049972858 0.04990799 0.049839813 0.049964972 0.049881499 0.049893696
0.049994186 0.049922895 0.049890675 0.050065286 0.050009165 0.049980462
0.049930468 0.049979433 0.050048865 0.050041515 0.049950071 0.050035354
0.050130822 0.050082762 0.049996529 0.050100248 0.050100122 0.050034124
0.050015628 0.050085105 0.050213668 0.050069377 0.050137736 0.05017747
0.050164953 0.05015244 0.050185282 0.050157849 0.050177623 0.050104626
0.050099973 0.050170198 0.0500056 0.050132833 0.050076686 0.050074745
0.050198358 0.050080121 0.050104074 0.050152142 0.050088827 0.050186064
0.050211433 0.050045963 0.050004262 0.05003551 0.050018672 0.050029024
0.050065495 0.05006269 0.050032251 0.050074596 0.050056096 0.050038278
0.050010029 0.049976308 0.050029073 0.0501622 0.050112169 0.050033264
0.050013002 0.050116066 0.049988002 0.049961999 0.049908001 0.050089009
0.050140008 0.050140008 0.049825009 0.049894102 0.049868014 0.049853396
0.049896244 0.049726706 0.049861331 0.04994005 0.049714804 0.049828157
0.04998859 0.049837768 0.049874112 0.049872138 0.049874805 0.04998856
0.049982239 0.049878888 0.049770001 0.049831457 0.049852371 0.04992418
0.049962848 0.049909979 0.049916528 0.049976137 0.049900334 0.050017644
0.049970616 0.050037187 0.049867447 0.04986573 0.050067753 0.049901914
0.049991518 0.049979478 0.05004546 0.04999838 0.049990121 0.049970727
0.050005887 0.050039392 0.049923826 0.050012089 0.050074317 0.049900003
0.049968164 0.049937073 0.050009351 0.050063092 0.049931038 0.049914096
0.049922608 0.049951814 0.049979467 0.049862146 0.049770065 0.049925163
0.049882673 0.049859669 0.049976118 0.049981166 0.049864087 0.050017349
0.049981114 0.049932923 0.049907461 0.049997121 0.050035708 0.05000918
0.049997076 0.050067142 0.050099608 0.050088875 0.050031789 0.050135221
0.050110072 0.050081383 0.050071191 0.050083112 0.050265688 0.050141934
0.050174389 0.050212141 0.050168436 0.050178666 0.050256293 0.050183438
0.050203077 0.050130658 0.050145883 0.050233878 0.050075065 0.050236098
0.050148956 0.050110694 0.050227217 0.050091404 0.050109114 0.050164249
0.050092991 0.050219126 0.050216764 0.050081089 0.050051346 0.049994584
0.049980558 0.050063778 0.050095253 0.050080482 0.050028168 0.050101537
0.050106093 0.050049216 0.050020095 0.049973138 0.050036039 0.050122127
0.050099205 0.050090209 0.050055016 0.050121069 0.050054014 0.049969021
0.049899004 0.050104007 0.050115019 0.050115019 0.049773999 0.049855135
0.049819071 0.049806427 0.049848258 0.049717043 0.049812336 0.049879704
0.049744047 0.049784087 0.049945474 0.049800806 0.049848188 0.049829319
0.049855154 0.049959656 0.049911965 0.049855623 0.049795602 0.049819123
0.049836766 0.049902271 0.049927499 0.049882654 0.04986421 0.049945336
0.049888499 0.050040755 0.049996823 0.049950961 0.049889393 0.049882255
0.050048996 0.049906086 0.049996216 0.050016206 0.049989302 0.049956694
0.049945306 0.049988225 0.050047923 0.050050829 0.049946602 0.050023567
0.05007549 0.049920563 0.049918547 0.049916212 0.050017793 0.050040461
0.049907003 0.049938094 0.049902137 0.049936645 0.049956497 0.049833477
0.049742397 0.049889911 0.049858805 0.049835306 0.049923882 0.049982276
0.049842544 0.049941875 0.049955815 0.049896553 0.049892873 0.050012141
0.050017416 0.049962096 0.050033245 0.050098542 0.050073728 0.050085705
0.050067879 0.050173867 0.050142027 0.050115947 0.050161332 0.050103445
0.050273605 0.05022943 0.050224714 0.050232511 0.050194811 0.050214835
0.050313279 0.050228778 0.05022708 0.050184421 0.050216828 0.050300181
0.05015225 0.050326295 0.05022639 0.050165974 0.050236482 0.050099835
0.050124269 0.050173488 0.050106995 0.05022319 0.050220046 0.050137118
0.050093461 0.049987685 0.0499794 0.050108518 0.050123148 0.050093312
0.05001707 0.050108351 0.050141055 0.050037242 0.050044119 0.050004106
0.050039019 0.050079055 0.050089099 0.050131094 0.050080024 0.050111044
0.050124068 0.050010003 0.049892008 0.050116006 0.050068013 0.050068013
0.049718007 0.049800169 0.049776219 0.049778469 0.0497794 0.049708225
0.049766451 0.049802762 0.049796294 0.049767304 0.049893588 0.049755208
0.049817368 0.049778864 0.049842387 0.049918931 0.049821503 0.049831245
0.049809393 0.04981919 0.049843449 0.049869999 0.049869515 0.04986294
0.049812999 0.049899388 0.04987973 0.050057843 0.050022442 0.049897388
0.049911819 0.04988962 0.050016899 0.049897648 0.049982473 0.050038114
0.049963288 0.049952459 0.0499078 0.049997468 0.050074648 0.050065048
0.049992431 0.050020114 0.050078768 0.049956162 0.049880613 0.049924463
0.049991868 0.050007794 0.049895179 0.049967948 0.04989339 0.049880181
0.049898673 0.049823456 0.049751274 0.049859941 0.049824476 0.049814761
0.049854711 0.049918439 0.049811654 0.049854912 0.049931597 0.049864944
0.049895771 0.050016083 0.04998336 0.04991908 0.050056599 0.050128408
0.050070118 0.050092332 0.050101269 0.05020643 0.050187878 0.050146874
0.050255738 0.050149906 0.050269835 0.050310414 0.05026032 0.050262101
0.050250508 0.050253283 0.050365817 0.050301943 0.050281491 0.05026846
0.050286546 0.050346378 0.050223615 0.050396681 0.050285086 0.050214745
0.050246235 0.050120406 0.050152745 0.050206725 0.050132975 0.050212279
0.050229058 0.050190106 0.050125584 0.050011773 0.05001333 0.050143372
0.050146144 0.050119244 0.050018039 0.05011021 0.050137021 0.050017335
0.050073076 0.050041169 0.050066013 0.050062027 0.050080013 0.050139051
0.05008902 0.050083045 0.050147105 0.050073046 0.049907003 0.050117999
0.050046999 0.050046999 0.049657028 0.049731225 0.049732413 0.049755577
0.049715657 0.049703155 0.049744684 0.049730416 0.049803514 0.049746905
0.049835112 0.049716055 0.049781844 0.049738962 0.049845576 0.049872756
0.049729899 0.049794059 0.049801204 0.049817681 0.049850583 0.049835779
0.049803685 0.049856771 0.049782902 0.04984846 0.049866673 0.050055128
0.050027359 0.049885407 0.049930438 0.049887747 0.049988613 0.049888451
0.049965907 0.050035726 0.049971629 0.049987804 0.049893063 0.049995922
0.05006713 0.050067764 0.050048392 0.050007742 0.050075799 0.0499852
0.049853049 0.049956951 0.049951695 0.049975585 0.049898762 0.049982473
0.049895763 0.049817469 0.049817663 0.049808364 0.049768899 0.049833182
0.049790103 0.049783293 0.049790096 0.049825899 0.049767751 0.049767863
0.049899753 0.049829602 0.049897391 0.049995366 0.049939845 0.049897663
0.05006155 0.050154243 0.050086547 0.050120316 0.050132595 0.050226439
0.050234765 0.050194696 0.050343331 0.050216477 0.050291505 0.05037212
0.050280724 0.050314929 0.050317574 0.050293773 0.050426595 0.050398856
0.050361607 0.050363708 0.050346632 0.050366811 0.050282285 0.050449386
0.050316095 0.050249863 0.050274257 0.050155006 0.050204482 0.050277814
0.050166041 0.050210256 0.05024593 0.050221033 0.050150678 0.050048761
0.05006434 0.050169285 0.050161157 0.050153203 0.050029047 0.050123151
0.050104011 0.049999367 0.050098043 0.050058238 0.050118025 0.050080031
0.050067004 0.050120067 0.050089013 0.050050076 0.050124079 0.050131213
0.049952999 0.050111007 0.050060999 0.050060999 0.049592059 0.049655326
0.049684521 0.049726736 0.049680911 0.049699992 0.049735028 0.049672242
0.049736824 0.049699903 0.049777016 0.049686264 0.049739741 0.049720418
0.049854044 0.049824435 0.049654499 0.049746383 0.04977021 0.049799856
0.049838182 0.049811684 0.049756993 0.049856912 0.04977816 0.049806882
0.04984444 0.050024811 0.050013363 0.049900752 0.049943853 0.049892284
0.049976371 0.049894281 0.049960867 0.050016034 0.050005015 0.050033297
0.049901649 0.049993705 0.050032601 0.050054036 0.050096471 0.050001506
0.050055481 0.04999961 0.04984536 0.049994327 0.049918037 0.049951613
0.049904611 0.049966715 0.049903885 0.049784608 0.049737453 0.049764056
0.049767956 0.049805168 0.049751543 0.049732953 0.049735624 0.049744651
0.049725667 0.049687192 0.049855415 0.049787693 0.049878415 0.049948055
0.049903575 0.04990131 0.050044578 0.050166428 0.050106756 0.050157797
0.050162807 0.050239868 0.050278801 0.05026399 0.050429001 0.050293449
0.05035229 0.050418947 0.050310709 0.050389528 0.05038029 0.050341569
0.050496805 0.050502446 0.050444722 0.050448444 0.050404176 0.050371435
0.05032694 0.050484162 0.050332107 0.050285693 0.050324947 0.050192259
0.050280038 0.050379701 0.050208174 0.050228052 0.050264839 0.050233867
0.050173704 0.050087623 0.050120343 0.050202198 0.050172117 0.05017614
0.05004007 0.050143104 0.050070029 0.04998526 0.050113067 0.050056197
0.050169058 0.050126057 0.050053008 0.050089087 0.050083011 0.050031111
0.050086029 0.050169267 0.050023999 0.050105006 0.050083999 0.050083999
0.049526077 0.049583439 0.049637496 0.049684886 0.049673017 0.049682941
0.049709454 0.049622551 0.049618341 0.049630012 0.04972003 0.049657587
0.049700014 0.049718827 0.049841084 0.049776994 0.049606681 0.049691349
0.049719755 0.049768612 0.04980804 0.049800932 0.049742542 0.04985413
0.049788009 0.049787916 0.049820427 0.049967866 0.049990356 0.049916059
0.049952175 0.049918909 0.049985617 0.049922068 0.049970202 0.049992368
0.050048221 0.050059482 0.049922902 0.050000608 0.050001383 0.050027147
0.05012558 0.050011504 0.050019834 0.049998861 0.049869135 0.05001926
0.049897429 0.049943186 0.049900301 0.049919814 0.049912762 0.049787756
0.049676266 0.049694154 0.049734578 0.049764618 0.049697194 0.049667474
0.049676199 0.04968803 0.049696706 0.049617946 0.049802072 0.049744859
0.049834352 0.049887836 0.049888071 0.049925297 0.050007142 0.050155744
0.050112814 0.050182115 0.050193932 0.050260991 0.050323881 0.050343711
0.050515287 0.050379951 0.050442688 0.05046894 0.050374281 0.050481472
0.050438892 0.050398335 0.050562829 0.050599635 0.050514031 0.050515197
0.050466876 0.050382871 0.050367165 0.05050645 0.050354484 0.050335553
0.050391864 0.050229926 0.050366882 0.050485387 0.050260186 0.050258704
0.050278768 0.050242618 0.050197627 0.050128412 0.050176267 0.05024609
0.050184056 0.050175048 0.050049081 0.050148029 0.050051086 0.049967088
0.050124139 0.050057076 0.050188076 0.050185084 0.050051004 0.050062057
0.050076004 0.050027091 0.050066005 0.050181132 0.050097004 0.050108001
0.050090998 0.050090998 0.049466066 0.049523532 0.049592391 0.049635023
0.049668968 0.049640201 0.049648881 0.049572412 0.049496979 0.049552817
0.049661864 0.049616709 0.049664427 0.049716983 0.049786851 0.049729895
0.04958361 0.049633838 0.049661934 0.049739454 0.049779981 0.049794417
0.049750429 0.049837179 0.049793515 0.049791493 0.049804118 0.049900163
0.049967397 0.049913328 0.049954075 0.049967598 0.050012808 0.04996714
0.049987707 0.049976237 0.050085317 0.050057746 0.049942896 0.050023835
0.050007723 0.049999516 0.050130658 0.050041806 0.049988102 0.049992546
0.04992241 0.050023995 0.049881488 0.049952727 0.049881671 0.049853701
0.049914569 0.04980604 0.049640074 0.049622513 0.049675249 0.049703822
0.049622104 0.049593642 0.049594879 0.049636565 0.049677785 0.049559545
0.049745854 0.049701739 0.049773589 0.049831681 0.049896885 0.049951762
0.049958613 0.050126895 0.050107151 0.050185665 0.050228085 0.050297059
0.050374523 0.050421074 0.050600793 0.050471313 0.050546564 0.050538834
0.050474592 0.050586488 0.050509449 0.050466541 0.050615791 0.050685335
0.050568379 0.050571363 0.050539248 0.050415669 0.050417669 0.050527908
0.050398804 0.050402433 0.050463051 0.050274067 0.050449006 0.050570909
0.050318934 0.050291348 0.050285608 0.050258335 0.050222415 0.05017418
0.050230116 0.050290011 0.050197024 0.050159998 0.050057065 0.050138004
0.050037127 0.049952999 0.050128173 0.050083 0.050167032 0.05023206
0.050071999 0.050048009 0.050069001 0.050031018 0.050070006 0.050166011
0.050144009 0.050122008 0.050080001 0.050080001 0.049415037 0.049471572
0.049543291 0.049578194 0.049641911 0.049566854 0.049561266 0.049518626
0.049413547 0.049482267 0.049596433 0.049555514 0.049627714 0.049692065
0.049696177 0.049683496 0.049569227 0.049578547 0.049610492 0.049722843
0.049773086 0.049782898 0.049757909 0.049806152 0.049783688 0.049808431
0.049797818 0.049835861 0.049949929 0.049895927 0.049947046 0.050014649
0.050047264 0.050019071 0.050008878 0.049971182 0.050109096 0.050047386
0.049963478 0.05006101 0.050062697 0.049987528 0.050112754 0.050088573
0.049984664 0.049988795 0.049988683 0.050016116 0.049866103 0.049977653
0.049858872 0.049790435 0.049899239 0.049812503 0.049617682 0.049565576
0.049603172 0.049625188 0.049530819 0.049512397 0.049493376 0.049572296
0.049647458 0.049507767 0.049687646 0.049653448 0.049709182 0.049787637
0.04991487 0.049961828 0.049910769 0.050096601 0.050105881 0.05018435
0.050268248 0.050347995 0.05043425 0.050492015 0.050681498 0.050562624
0.050646998 0.050631352 0.050599687 0.050703764 0.050603881 0.0505457
0.050661512 0.050760448 0.050617449 0.05063045 0.050622921 0.050479617
0.05048354 0.050564632 0.050470296 0.050473884 0.050523873 0.050331064
0.050518926 0.050627392 0.050377481 0.050317079 0.050284315 0.050283089
0.050249137 0.05022601 0.050276004 0.050312027 0.050207004 0.050147053
0.050068013 0.050123125 0.05001507 0.04995507 0.050118063 0.050136048
0.050122004 0.050248999 0.050105006 0.050054025 0.050062012 0.050041009
0.050082039 0.050131019 0.050154008 0.050137017 0.050062001 0.050062001
0.049369015 0.049417574 0.049482241 0.049509384 0.049578004 0.049474806
0.049472619 0.049462758 0.049371995 0.049413707 0.049521003 0.049477261
0.049580853 0.049636401 0.049585741 0.049631596 0.049549315 0.049535193
0.049575269 0.049714908 0.049785793 0.049759533 0.049751349 0.049765695
0.049757782 0.049828779 0.049796995 0.049784511 0.049935684 0.049881499
0.049933325 0.050037477 0.050077982 0.050066415 0.05002996 0.049974639
0.050119776 0.050057389 0.049996607 0.050105758 0.050156318 0.050002716
0.050083105 0.050140984 0.050022945 0.049994323 0.0500484 0.050010171
0.049855426 0.050009109 0.049848247 0.049749315 0.049864378 0.049794048
0.049595933 0.049526226 0.049528956 0.049541913 0.049439561 0.049418833
0.049384076 0.049489863 0.049586449 0.049454089 0.049623199 0.049596522
0.049648684 0.049748741 0.049918368 0.049942907 0.049877957 0.050081119
0.050124612 0.050198577 0.0503162 0.050414216 0.050504595 0.050561231
0.050752822 0.050653134 0.050738093 0.050737027 0.050736204 0.050828878
0.050720945 0.050644901 0.050719585 0.050828878 0.050675772 0.050705519
0.050714727 0.050570913 0.050565027 0.050625045 0.05056563 0.050540604
0.050572738 0.050401244 0.050574169 0.050658032 0.050427083 0.050337017
0.050277036 0.050321013 0.050281003 0.050277118 0.050307088 0.05029925
0.050214019 0.050143283 0.05008902 0.050106443 0.049998 0.049969327
0.050104018 0.05019024 0.050084155 0.050229102 0.05013302 0.050069191
0.050049037 0.050057117 0.050084088 0.050080091 0.050140001 0.050143033
0.050044004 0.050044004 0.04932401 0.049354542 0.049409278 0.049420509
0.049482323 0.049378633 0.049399063 0.049404528 0.049347591 0.049342602
0.049442917 0.049392406 0.04951812 0.049552366 0.049475338 0.049571685
0.049517702 0.049501941 0.049553499 0.049701475 0.049796768 0.049724851
0.049729299 0.049722917 0.049724199 0.049840271 0.049788233 0.049748935
0.049926307 0.049883738 0.049920939 0.050032537 0.050093129 0.0500995
0.050049901 0.049987778 0.050125968 0.050104577 0.050057482 0.050155018
0.050259721 0.050046563 0.050059099 0.050188083 0.050098203 0.050015807
0.050086666 0.050023336 0.049865633 0.050034069 0.049853992 0.049742639
0.049815547 0.049754642 0.049568746 0.049490944 0.049456801 0.049464535
0.049357921 0.049310062 0.049278203 0.049388856 0.049482763 0.049391024
0.049550518 0.049529478 0.049588028 0.049706995 0.049889356 0.049898274
0.049868688 0.050085068 0.050171815 0.050238054 0.050373219 0.050498351
0.050583858 0.050632641 0.05082085 0.050747074 0.050826516 0.050841529
0.050876677 0.050960202 0.050853238 0.050770737 0.050807841 0.050896782
0.050755154 0.050804093 0.05080888 0.050682034 0.050656516 0.050708681
0.050675429 0.050606012 0.050611056 0.050476022 0.050615042 0.050673142
0.050467059 0.050354384 0.050275117 0.050363421 0.050321341 0.05031278
0.050323538 0.050264902 0.050214268 0.050148819 0.050111327 0.050091002
0.049986251 0.049991824 0.050092436 0.050220702 0.050066575 0.050174579
0.050138116 0.05007448 0.05002908 0.050079327 0.050066162 0.050027151
0.050117008 0.050131053 0.050022002 0.050022002 0.049269043 0.049282514
0.049330465 0.049311519 0.049367916 0.049287055 0.04933377 0.049341135
0.049305733 0.049262203 0.049365591 0.049307331 0.049440019 0.049453247
0.049374171 0.049501486 0.049478427 0.049472358 0.049530696 0.049669489
0.049784623 0.049681839 0.049698085 0.049682759 0.049696375 0.049834955
0.049766958 0.049730625 0.04992317 0.049905069 0.049918998 0.050011486
0.050091963 0.050118484 0.050070405 0.050015409 0.050137036 0.050183415
0.050143521 0.050209127 0.050349079 0.050114285 0.050063234 0.050223675
0.050193448 0.050062511 0.050111298 0.050066113 0.04990688 0.050043307
0.049871866 0.049773425 0.049769916 0.049708035 0.049542103 0.049450103
0.049389385 0.049396478 0.049284346 0.049190909 0.049174991 0.049274992
0.049342711 0.049314469 0.049468704 0.049451184 0.049524684 0.049656592
0.049828969 0.049847782 0.049885083 0.050104082 0.050238166 0.050299302
0.050445929 0.050605908 0.05066783 0.050710786 0.050899021 0.050853584
0.050927717 0.050944798 0.051019672 0.051095564 0.050998356 0.0509279
0.050929446 0.050972521 0.050860792 0.050922919 0.05090392 0.050802611
0.050755408 0.050809018 0.050788 0.050679337 0.050651222 0.050544787
0.050644744 0.050678063 0.050502792 0.050371524 0.050285023 0.050402716
0.050356433 0.050329167 0.050328534 0.050233234 0.050203227 0.050159905
0.050123308 0.050081953 0.049974177 0.050017681 0.05008648 0.050222632
0.050059292 0.050101418 0.05011043 0.050054811 0.050008204 0.050095599
0.050026242 0.04998222 0.050092064 0.050096069 0.049989998 0.049989998
0.049195182 0.049203485 0.049253911 0.049194504 0.049243744 0.049199279
0.049257934 0.049261991 0.049231812 0.04917654 0.049288359 0.049228292
0.049350958 0.049348105 0.049284779 0.04942425 0.04943087 0.049432114
0.04949455 0.049613547 0.049740527 0.049636457 0.049660772 0.049647424
0.049676441 0.04981149 0.049740016 0.049730595 0.04993001 0.049931537
0.049925119 0.049994823 0.050082684 0.050132204 0.050098155 0.050066117
0.050162658 0.05027651 0.050243221 0.050270502 0.050416764 0.050195675
0.050114933 0.050258636 0.050289251 0.050143171 0.050141934 0.050135642
0.049977291 0.050041538 0.04989548 0.049834296 0.049743403 0.049666829
0.049523938 0.049402334 0.049325287 0.049321428 0.049206834 0.049066328
0.049059585 0.049146563 0.049180534 0.049219549 0.049372271 0.04935525
0.049452487 0.049597993 0.049747657 0.049809694 0.049922835 0.050128952
0.050314195 0.050374493 0.050536696 0.050730206 0.050754506 0.050805572
0.051005848 0.050979666 0.051056281 0.051062163 0.051167317 0.051236063
0.051155359 0.051108614 0.051075865 0.051067539 0.050987337 0.051057532
0.050998487 0.05092201 0.050857 0.050916333 0.050899442 0.050764617
0.050706524 0.050604712 0.050665539 0.050683063 0.050535675 0.050395738
0.050304219 0.050427176 0.050375469 0.05033033 0.050334319 0.050226439
0.050183397 0.050160732 0.050123174 0.050071497 0.049959876 0.05003402
0.05009101 0.050199091 0.050040282 0.05002341 0.050048079 0.050011143
0.04999052 0.050092917 0.04996936 0.049949326 0.05005417 0.050040055
0.049950998 0.049950998 0.049097434 0.049111471 0.049171649 0.049083661
0.049110763 0.049105763 0.049159609 0.049160443 0.049125925 0.049083546
0.049205374 0.049157433 0.049260221 0.049246959 0.049207535 0.049340986
0.049369525 0.049371749 0.049443293 0.049538705 0.049670201 0.049591977
0.049615975 0.049615048 0.049660154 0.049772706 0.049719345 0.049747109
0.049941316 0.049948163 0.049934804 0.04999369 0.050078217 0.05015137
0.05014104 0.050141774 0.050211035 0.050360885 0.050337907 0.050343316
0.050466958 0.050281949 0.050219376 0.050316107 0.050380226 0.050260093
0.050201524 0.050221305 0.050065868 0.050041415 0.049925376 0.049913645
0.049745768 0.049642842 0.049520239 0.049353667 0.049264286 0.049224645
0.049116027 0.048941456 0.04892116 0.04900251 0.04900853 0.049102526
0.049252834 0.049235478 0.049370185 0.049535703 0.049668051 0.049796268