# vtk DataFile Version 3.0
axinsert(project(???,0,L2),2)
ASCII
DATASET STRUCTURED_POINTS
DIMENSIONS 256 1 1
ORIGIN 0 0 0
SPACING 1 1 1
POINT_DATA 256
SCALARS nrrd32452 float
LOOKUP_TABLE default
0 0 0 0 0 0 0 0 0 0 0 0 0 0 0 0 0 0 0 0 0 0 0 0 0 0 0 0 0 2.4494898e-06
1.9261361e-05 0.00013518876 0.00094787497 0.0063040159 0.038924731
0.21518059 0.97607332 2.2965043 1.4376887 1.5375943 1.3542861 0.94103134
1.1580963 1.5643169 1.8229465 1.7572327 1.5246542 1.8020693 1.7548867
1.6450881 2.0397165 2.4766858 2.095613 1.6260835 1.2965537 1.1047717
0.99950266 0.93802881 0.89804131 0.86907589 0.84587491 0.82600522
0.80836952 0.79226899 0.77762568 0.76404905 0.75144511 0.73972529 0.7288329
0.71869534 0.70924127 0.70039898 0.69210941 0.68423903 0.67657119
0.66907829 0.66197032 0.65547961 0.64965278 0.64429349 0.63908845
0.63393354 0.62888813 0.62316304 0.61728817 0.61150992 0.60570943
0.59926462 0.59248328 0.58521724 0.57745159 0.56975961 0.56300211
0.55776531 0.55469239 0.55406433 0.55551589 0.55776143 0.55976242
0.56097519 0.55802721 0.55385822 0.55026478 0.54704791 0.54343474
0.53884208 0.53307581 0.52150983 0.50569659 0.48680693 0.46853215
0.46673602 0.47197807 0.47449991 0.47500321 0.47694293 0.50382984
0.55298209 0.58255982 0.59375334 0.61559272 0.6996159 0.77028984 0.79989839
0.78172994 0.72903013 0.68339986 0.60302341 0.60302341 0.462816 0.28602242
0.22893853 0.24189283 0.34209836 0.48763767 0.53687996 0.54682916
0.52692312 0.47404298 0.38951707 0.31619012 0.28098738 0.26718846
0.25937241 0.25691861 0.2591204 0.26458651 0.27133551 0.27685982 0.28077197
0.28252584 0.28261131 0.28220966 0.28207168 0.28349507 0.29087749
0.30361724 0.32461765 0.35223213 0.37494326 0.38965955 0.39481255
0.39341882 0.38804728 0.38492808 0.3903102 0.41129372 0.44832057 0.49540985
0.54669064 0.59797299 0.64895028 0.69997931 0.74976271 0.79622549
0.83765811 0.87158501 0.89565027 0.9124223 0.91975373 0.91617209 0.9024893
0.87934071 0.84962755 0.81657553 0.7820465 0.74577665 0.7053898 0.66043562
0.61293054 0.567186 0.5249024 0.48176306 0.43648714 0.38933656 0.34033322
0.2901009 0.23706231 0.17067395 0.090354189 0.026603328 0.0028096216
0.00025328639 1.9924859e-05 2e-06 0 0 0 0 0 0 0 0 0 0 0 0 0 0 0 0 0 0 0 0 0
0 0 0 0 0 0 0 0 0 0 0 0 0 0 0 0 0 0 0 0 0 0 0 0 0 0 0 0 0 0
