# vtk DataFile Version 3.0
axinsert(project(permute(???,2,0,1),0,L2),2)
ASCII
DATASET STRUCTURED_POINTS
DIMENSIONS 128 256 1
ORIGIN 0 0 0
SPACING 1 1 1
POINT_DATA 32768
SCALARS nrrd40704 float
LOOKUP_TABLE default
0.049963064 0.050035194 0.050029002 0.049993046 0.049968999 0.049969144
0.049966179 0.050003555 0.050042085 0.049988139 0.050034441 0.050028026
0.050002463 0.050041016 0.049964018 0.050032057 0.049994007 0.049999196
0.049933061 0.050012946 0.050036088 0.049944114 0.049978293 0.05000012
0.050025612 0.050020017 0.050001279 0.04997018 0.049959563 0.050026659
0.050041262 0.050042611 0.050028019 0.049983252 0.049989086 0.049968019
0.050007824 0.050000116 0.049949214 0.050003819 0.049997091 0.049987379
0.050026681 0.050008491 0.049992114 0.050013594 0.050031152 0.049993098
0.049990222 0.050031167 0.050032042 0.04999008 0.049947001 0.049988095
0.050014138 0.050013017 0.049934998 0.050011549 0.050024066 0.049978085
0.050025139 0.050028279 0.049986526 0.049992424 0.049987111 0.049979072
0.050015014 0.050001007 0.050020352 0.050039001 0.050031036 0.049974266
0.049995005 0.04995418 0.049988169 0.050051078 0.049984105 0.04998723
0.049982 0.050001074 0.050036021 0.050023176 0.049994007 0.049955145
0.049986009 0.050019015 0.050036054 0.050036311 0.049990598 0.049970094
0.050041344 0.049982212 0.049996074 0.050023153 0.050015252 0.049987167
0.049997583 0.050014082 0.049987596 0.050022066 0.050019104 0.04996834
0.049961336 0.049989019 0.05003424 0.050040066 0.049966808 0.049959
0.049985163 0.049984016 0.04997509 0.050001014 0.049993001 0.049954005
0.050058551 0.050090224 0.050000031 0.049952306 0.049995013 0.05002109
0.049989104 0.049965043 0.04998 0.050001014 0.049974043 0.05002119
0.050050009 0.050050009 0.049934998 0.050035112 0.050061002 0.049959198
0.04992019 0.04996036 0.049964 0.049963363 0.050035059 0.049982078
0.050068185 0.050001863 0.049993884 0.050083265 0.049937438 0.050062377
0.050027005 0.049920704 0.049871702 0.050002426 0.050214477 0.049898252
0.0499532 0.049975164 0.049939547 0.050065044 0.049945295 0.049912732
0.049991287 0.050037004 0.050040681 0.050054576 0.050128974 0.049980931
0.049941424 0.050048236 0.050082248 0.050002813 0.049830198 0.049941041
0.05003253 0.049929969 0.049991969 0.050059345 0.050046451 0.050005842
0.050170653 0.050055001 0.0499993 0.050018039 0.050038699 0.050000001
0.049881417 0.049989 0.0500612 0.050087027 0.049837999 0.050013009
0.050130036 0.049991038 0.050003234 0.050016038 0.049987063 0.049948003
0.05001403 0.050036069 0.049975123 0.04991208 0.050017029 0.050079022
0.050083119 0.050045077 0.050077073 0.049925584 0.049925629 0.050117187
0.05004463 0.05001241 0.049994424 0.049929872 0.050021645 0.050009646
0.049977209 0.050028708 0.049961325 0.0500356 0.050086115 0.050098028
0.049913116 0.049942493 0.050015185 0.049936175 0.050042961 0.050034732
0.050025802 0.049982678 0.050025128 0.050011601 0.049986195 0.050028328
0.050024055 0.049938325 0.049929742 0.049949516 0.050035361 0.050079241
0.049947463 0.049946297 0.049962807 0.050005272 0.049986031 0.049941361
0.049968466 0.049926344 0.050019588 0.050135043 0.050040044 0.049942199
0.050013207 0.049998112 0.050032031 0.049980398 0.049974054 0.049936287
0.049903002 0.050054103 0.050039038 0.050039038 0.049918059 0.049983133
0.050023336 0.049891289 0.049935807 0.050056268 0.05001317 0.049953196
0.049938124 0.049921948 0.050026778 0.049908277 0.050036829 0.050057769
0.04996093 0.049996652 0.049987424 0.049882438 0.049924973 0.050006934
0.050148465 0.049985331 0.049997412 0.049988259 0.049877752 0.050010569
0.049874391 0.049971592 0.050110437 0.049978107 0.049953494 0.050036132
0.050132982 0.050021518 0.049964219 0.050114606 0.050118055 0.049995832
0.049885903 0.04991753 0.050055426 0.049915191 0.049938083 0.050102156
0.050059833 0.050026529 0.050282359 0.05014867 0.050029084 0.049922343
0.049992625 0.050065167 0.049922403 0.049989998 0.050097454 0.050129071
0.049912143 0.050047249 0.050105006 0.050068028 0.04993511 0.049956001
0.050037999 0.049979072 0.050086156 0.050065439 0.049928028 0.049866352
0.04996505 0.05004124 0.050091006 0.050111301 0.0501041 0.0500772
0.049926102 0.050052341 0.050121631 0.050018847 0.050031684 0.049945015
0.049987249 0.049964219 0.049982227 0.050110139 0.050016005 0.050027631
0.050075132 0.050081659 0.049915191 0.049991906 0.049926091 0.049954325
0.05006263 0.049998172 0.050045978 0.050031409 0.050006092 0.049965713
0.049979296 0.050028428 0.050014839 0.049938649 0.049964033 0.049937885
0.049944896 0.050069898 0.049955741 0.050029788 0.050000079 0.050015591
0.050003428 0.049843252 0.049998142 0.049977623 0.049956925 0.050014541
0.050002299 0.05001552 0.04996445 0.049902055 0.05004007 0.049984001
0.049951006 0.049934052 0.049940053 0.050063003 0.049948089 0.049948089
0.049861189 0.049936112 0.050016802 0.049852096 0.049940594 0.050096113
0.050006554 0.049951419 0.049863625 0.049825199 0.050012015 0.049857564
0.050058112 0.050069828 0.049938567 0.049928047 0.049908537 0.049883708
0.049970534 0.049978539 0.050017942 0.050000411 0.049964327 0.050034363
0.049908385 0.049907804 0.049872659 0.050063875 0.050166547 0.049949862
0.049945634 0.050085139 0.050112151 0.050074823 0.050018102 0.050073572
0.0500741 0.050006039 0.050016314 0.049969632 0.050071061 0.04997699
0.049986951 0.050086133 0.050009273 0.050121255 0.050264373 0.050185043
0.050045297 0.049883708 0.05006133 0.050062392 0.049994722 0.049998015
0.050155424 0.050172076 0.049939081 0.050088052 0.05003801 0.050108001
0.049949016 0.049898013 0.050075065 0.050083097 0.050116103 0.050000183
0.049935002 0.049951438 0.049973346 0.050014805 0.050092231 0.050118554
0.050082445 0.05015336 0.049977809 0.049998712 0.050151587 0.050035026
0.050033025 0.050012186 0.050033763 0.050013989 0.049975801 0.050014917
0.050126344 0.050061863 0.050088737 0.050096467 0.049934383 0.050053038
0.049947873 0.050019462 0.050040428 0.049969733 0.050047759 0.05007967
0.049969885 0.049934864 0.049944483 0.050071336 0.050036173 0.049883004
0.049969479 0.049945164 0.049912866 0.050061621 0.049931798 0.050102461
0.050048579 0.049962167 0.049935997 0.049808819 0.05000747 0.049916249
0.049979169 0.049988154 0.049882919 0.050001875 0.049861416 0.04984507
0.049986172 0.049885999 0.049918 0.050017055 0.049966224 0.050061107
0.049948085 0.049948085 0.04984514 0.049836066 0.050035078 0.04992203
0.049932368 0.050053068 0.049932942 0.049929656 0.049809244 0.049720332
0.049979169 0.049808487 0.049991995 0.050048016 0.049920619 0.049929138
0.049826797 0.049894221 0.050002743 0.049930662 0.049981728 0.049969088
0.049868975 0.050050437 0.049932238 0.049860302 0.049891707 0.050096642
0.050185945 0.049981993 0.050009057 0.050146446 0.050093379 0.050108433
0.050068825 0.050023444 0.050022803 0.050042424 0.050098401 0.050035298
0.050124139 0.050062716 0.050050549 0.050047487 0.050042789 0.050191328
0.050176207 0.050180562 0.050055228 0.049926177 0.050191451 0.049998514
0.05006399 0.050064117 0.050211374 0.050252002 0.049907021 0.050089005
0.050035022 0.050133999 0.04998 0.049839012 0.050097026 0.050174128
0.050110068 0.049953151 0.049984008 0.05008667 0.050046768 0.049999554
0.050054867 0.050146833 0.050081585 0.050131861 0.050019544 0.049991231
0.050188705 0.050080571 0.0500554 0.050048266 0.050092407 0.050087139
0.049970385 0.049943678 0.050214645 0.050078865 0.050139505 0.050134961
0.04997851 0.050110109 0.050034776 0.050070845 0.050023329 0.049950827
0.049993824 0.050095584 0.049956918 0.049939141 0.049943633 0.05008883
0.050055865 0.049838472 0.049972627 0.049975093 0.049912278 0.050006241
0.049932078 0.050116498 0.050035283 0.049909208 0.049868856 0.0498145
0.049934357 0.049827319 0.049950164 0.049973972 0.049833823 0.049914431
0.049752414 0.049837377 0.049952332 0.049849156 0.049894329 0.050060041
0.049924385 0.049998 0.049970001 0.049970001 0.049831122 0.049727086
0.050036911 0.04999312 0.049916688 0.049977224 0.049845688 0.049898103
0.049768675 0.049609996 0.04987758 0.049799364 0.049900394 0.049979452
0.049916271 0.049928635 0.049761411 0.049891725 0.05000335 0.049867973
0.04999369 0.049938481 0.049840722 0.050062168 0.049941741 0.04986763
0.049925793 0.050098557 0.05015821 0.050007813 0.050102782 0.050194032
0.050059807 0.050111525 0.050098523 0.049999043 0.050026834 0.050089285
0.050106645 0.050068863 0.050201721 0.050137643 0.050105579 0.050055619
0.05014383 0.050199397 0.050124239 0.05018267 0.050087858 0.050020155
0.050292112 0.049977034 0.050095048 0.050143644 0.050245479 0.050334301
0.049905121 0.050090097 0.050056044 0.050152045 0.049990002 0.049849018
0.050156098 0.050216056 0.050125279 0.049950194 0.050065435 0.05019911
0.050117351 0.050020926 0.05000918 0.050196502 0.050110288 0.050122984
0.050059091 0.050000809 0.050219752 0.05009805 0.050117303 0.050109159
0.050123256 0.050100274 0.050018955 0.049966108 0.05023659 0.050116569
0.050195258 0.050145715 0.050039336 0.050175086 0.050124608 0.050091658
0.050007474 0.049980562 0.049944766 0.050028361 0.049947135 0.049980864
0.049986579 0.050057825 0.05005933 0.049836051 0.049949333 0.049992286
0.049923126 0.049943164 0.049943864 0.050069842 0.049958877 0.049872801
0.049875416 0.049790557 0.049829993 0.049811542 0.049853146 0.049941864
0.049824137 0.049778305 0.049675912 0.049834441 0.049916595 0.04988173
0.049863901 0.050032452 0.049889375 0.049875297 0.04995006 0.04995006
0.049773134 0.049650203 0.050004587 0.049972527 0.049891524 0.049906019
0.049757108 0.04982052 0.049708057 0.049559172 0.049764302 0.049836747
0.049834404 0.049873542 0.049903065 0.049872126 0.049713351 0.049838938
0.050010383 0.049810153 0.04997094 0.049928181 0.04990194 0.050082412
0.049938954 0.049889483 0.049971242 0.050114319 0.050090298 0.050005179
0.050163802 0.050203368 0.050036788 0.050120048 0.050121814 0.049999665
0.050088983 0.050149955 0.050094493 0.050078351 0.050278168 0.050209139
0.050134823 0.050112158 0.050210007 0.050168149 0.050149366 0.050222974
0.050195511 0.050132863 0.050322317 0.050033722 0.050102279 0.050201125
0.050264925 0.050383471 0.049974728 0.050135355 0.050065234 0.050181258
0.05000101 0.049959097 0.05022461 0.050232004 0.050181821 0.049988139
0.050188642 0.050239217 0.050162811 0.050084855 0.050022237 0.05023966
0.05015301 0.050184805 0.050120708 0.050029803 0.050228409 0.050114166
0.050227679 0.050182227 0.050104924 0.050081629 0.050143696 0.050055139
0.050200939 0.050211564 0.05023754 0.050125413 0.050084621 0.0502018
0.050184149 0.050096255 0.049995426 0.050035469 0.049950555 0.049914327
0.049929082 0.050026685 0.050029024 0.050018221 0.050053727 0.049859345
0.049893063 0.049977362 0.049954418 0.049904011 0.049923882 0.050012734
0.049877491 0.049822919 0.049908243 0.04972513 0.049749006 0.049848143
0.049745757 0.049890082 0.049781457 0.049655456 0.049654003 0.049788218
0.049840968 0.049911447 0.049830936 0.049964972 0.049876232 0.049732689
0.049874108 0.049874108 0.049676172 0.049606267 0.049937285 0.049857147
0.049819171 0.049821027 0.04966386 0.049684394 0.049636215 0.049600199
0.049702007 0.049866747 0.049796689 0.049766909 0.04988578 0.049773995
0.049681202 0.049708646 0.050023466 0.049796395 0.049877502 0.049943902
0.049972653 0.050061885 0.049921684 0.049925402 0.050002385 0.050135169
0.050013009 0.049991269 0.050153986 0.050169013 0.050062101 0.05014617
0.050152991 0.050024532 0.050176848 0.050224826 0.050126024 0.050106134
0.050339401 0.050304875 0.050128408 0.050170187 0.05019854 0.05012564
0.050238535 0.050327912 0.050373495 0.050230563 0.050285254 0.050134793
0.050122634 0.050232522 0.050295528 0.050391167 0.050093856 0.050209764
0.050083846 0.050274409 0.050047018 0.050130039 0.050239839 0.050250065
0.050268941 0.050062124 0.05031129 0.050208926 0.050208833 0.050155431
0.050101504 0.050260153 0.050210819 0.050309252 0.050204568 0.050102375
0.050246172 0.050171964 0.050346039 0.050231606 0.050089903 0.050107975
0.050272916 0.050165482 0.050179861 0.050340381 0.050247394 0.050117534
0.050083816 0.050159246 0.050202791 0.050096273 0.049990486 0.050062172
0.050017405 0.049854171 0.049922533 0.050011571 0.050032869 0.049993094
0.050021436 0.049899694 0.049843099 0.049932413 0.050001886 0.049881734
0.049868684 0.049958326 0.049843006 0.049761254 0.049894415 0.04965502
0.049691346 0.049859069 0.049669649 0.049793586 0.049699303 0.049558613
0.049658775 0.049703371 0.049728267 0.049880844 0.049791694 0.049885001
0.049837071 0.049620327 0.049792036 0.049792036 0.04956932 0.049608052
0.04982309 0.049685262 0.049669903 0.049692918 0.049566187 0.049522858
0.049595013 0.049681097 0.049676668 0.049851976 0.049784847 0.049707524
0.04985366 0.049683027 0.049683064 0.049530383 0.049986269 0.049845085
0.049741991 0.049966026 0.049972322 0.049934462 0.049896903 0.049995314
0.049991388 0.050135523 0.049958289 0.049976103 0.050087314 0.050117671
0.050154787 0.050177597 0.050175831 0.050057441 0.050250638 0.050304603
0.050238471 0.050187554 0.050360639 0.050422173 0.050097615 0.050202705
0.050159238 0.050114755 0.050345276 0.050492447 0.050540112 0.050262854
0.050206684 0.050237849 0.050157301 0.050249118 0.050347518 0.050364133
0.050254341 0.050276741 0.050143443 0.050427184 0.050138053 0.05029805
0.050189342 0.050268006 0.050356261 0.050171256 0.050379299 0.050182663
0.050243583 0.050152663 0.050204787 0.050271984 0.050309084 0.050468799
0.050298955 0.050187733 0.050297428 0.050267167 0.050389346 0.050267946
0.050152704 0.050215628 0.050320134 0.050236888 0.050260391 0.050448239
0.050222125 0.050182421 0.050046049 0.050089225 0.050191902 0.050086457
0.049994286 0.050045427 0.050109319 0.049900018 0.049949039 0.049895559
0.049973149 0.049978919 0.049943488 0.04997889 0.049834501 0.049892511
0.050032329 0.049842857 0.049824961 0.049865108 0.049847033 0.049710277
0.04983028 0.0496144 0.049636628 0.049805757 0.049622819 0.049639918
0.049590595 0.049451843 0.049641632 0.049612604 0.049615372 0.049814504
0.049722746 0.049781438 0.049748015 0.04958 0.049757008 0.049757008
0.049481608 0.049683105 0.049655046 0.049515575 0.049466062 0.049549978
0.049467947 0.049369693 0.049608808 0.04971952 0.049653124 0.049794395
0.04977918 0.049715199 0.049763102 0.04963173 0.049742188 0.049374241
0.04986944 0.049934607 0.049641427 0.049944777 0.04989643 0.049714264
0.049882863 0.050088614 0.049952138 0.050110254 0.049930748 0.049950328
0.050016623 0.050085705 0.050289825 0.050215196 0.050166346 0.050072573
0.050281994 0.050378151 0.050430924 0.050337438 0.050319862 0.050526235
0.050071284 0.050225433 0.05016727 0.05016027 0.05042265 0.050661158
0.050610181 0.050197784 0.05013394 0.050319519 0.050197255 0.050227378
0.050412647 0.050311811 0.050454229 0.050318163 0.050222013 0.050579023
0.050239157 0.050417617 0.050110999 0.050264254 0.050411094 0.050289482
0.050392102 0.050248478 0.050215136 0.050028089 0.050294016 0.050300483
0.050460156 0.050605617 0.050382048 0.050207719 0.050362062 0.050347686
0.050326299 0.050333627 0.05029865 0.050370462 0.050283942 0.050233305
0.050463419 0.050484724 0.050203938 0.050341871 0.050017409 0.05007327
0.050168328 0.050072644 0.050011393 0.050004937 0.05018235 0.050020166
0.049999643 0.049697284 0.049859561 0.049960818 0.049822163 0.050109696
0.049847167 0.049903974 0.050012391 0.049770016 0.049863756 0.049702827
0.049819406 0.049676225 0.049788538 0.049612049 0.049589548 0.049727619
0.049584828 0.049450193 0.049455125 0.049315687 0.04957414 0.049544893
0.049531478 0.049768765 0.049628142 0.049636088 0.049626037 0.049612284
0.049769241 0.049769241 0.049429748 0.049794592 0.049479183 0.049417041
0.049286433 0.049466088 0.049377672 0.049239621 0.049652934 0.049657948
0.04961919 0.049723856 0.049739759 0.04975735 0.049610909 0.049630731
0.049833357 0.049306266 0.049713928 0.050014362 0.049642101 0.04984254
0.04980867 0.049528655 0.049884602 0.050149791 0.049943376 0.050067544
0.049911249 0.049921025 0.049996573 0.050106835 0.050390609 0.050279927
0.050145619 0.050084438 0.050293095 0.050442267 0.050643172 0.050520007
0.050242931 0.050577063 0.050094541 0.050252184 0.050248194 0.050236341
0.050432004 0.050737757 0.050575059 0.050086915 0.050147999 0.050374009
0.050245214 0.050142687 0.050477002 0.050265323 0.050647017 0.050326083
0.050290048 0.050651681 0.050307121 0.050457459 0.050055217 0.050216295
0.050402898 0.050371639 0.050375272 0.05041321 0.050122369 0.049845006
0.050345056 0.050335001 0.050622009 0.050644524 0.050412014 0.050156239
0.050391052 0.050393149 0.050212007 0.050457031 0.050440788 0.050514299
0.050228216 0.050199244 0.05068386 0.050464399 0.050267607 0.050542612
0.050054725 0.05015783 0.050145075 0.050076559 0.05006016 0.049965523
0.050210182 0.050151847 0.050040942 0.049515646 0.049763024 0.049937215
0.049698457 0.050244674 0.049839675 0.049973775 0.049947791 0.04970251
0.049994774 0.049509656 0.049691427 0.049650006 0.049824331 0.049640756
0.049570207 0.049677704 0.049547881 0.049259696 0.049299736 0.049186122
0.049482819 0.049515978 0.049473707 0.049753372 0.049555466 0.049490113
0.049492262 0.049671389 0.049773704 0.049773704 0.049434446 0.049829621
0.049358759 0.049431019 0.049211252 0.049486015 0.049290098 0.04917714
0.049672134 0.049505193 0.049558938 0.049674973 0.049646538 0.049771361
0.049482793 0.049662821 0.049873948 0.049348563 0.049593721 0.050020773
0.049761388 0.049707823 0.049769972 0.049506087 0.049881745 0.050103173
0.049996145 0.050010774 0.049892914 0.049910799 0.050018698 0.050187495
0.050389133 0.050365057 0.050178725 0.050149798 0.050349344 0.050492067
0.05076107 0.050665002 0.050191194 0.050570056 0.050202236 0.050288312
0.050346594 0.050292008 0.0503539 0.050683178 0.0504761 0.050080054
0.050276849 0.050442588 0.050275978 0.050064895 0.050507348 0.050257944
0.050724357 0.050295733 0.050367918 0.050571743 0.050331008 0.050406717
0.050059162 0.050138287 0.050302796 0.050403669 0.050301921 0.050593998
0.05004904 0.049753029 0.050338045 0.050325155 0.050711237 0.050560046
0.05033936 0.050141927 0.050351825 0.050431561 0.050141465 0.050600845
0.050503999 0.050580226 0.050230999 0.050212517 0.050771054 0.050451368
0.050446033 0.050692655 0.050175685 0.050316084 0.050128356 0.050114151
0.050142422 0.049943291 0.050189607 0.050243441 0.050026838 0.049480341
0.04976685 0.049904428 0.04962483 0.050292604 0.049817491 0.050036106
0.049889341 0.049703173 0.05012694 0.049369678 0.049491428 0.049607441
0.049896739 0.049697202 0.0495773 0.049653467 0.049512282 0.049110889
0.04916488 0.049123168 0.049433649 0.04952408 0.049417879 0.049734466
0.04954141 0.049411513 0.049339831 0.049700066 0.049706802 0.049706802
0.04949506 0.049723178 0.049291506 0.049519006 0.049282573 0.049535576
0.049225349 0.049207151 0.049635008 0.04933 0.049442992 0.049662739
0.049553055 0.049734432 0.04947985 0.049696654 0.049784329 0.049479105
0.049547054 0.049909476 0.049935393 0.04965597 0.049784046 0.049649801
0.049852002 0.049928177 0.050066322 0.049942665 0.049893495 0.04992738
0.050022162 0.050294496 0.050307941 0.050426245 0.050307535 0.050307024
0.050493214 0.050530761 0.050717622 0.050726086 0.050204072 0.05056639
0.050367344 0.050330762 0.050399166 0.05028924 0.050249748 0.050537013
0.050373122 0.050265018 0.050473932 0.050535101 0.050293423 0.050077233
0.050488673 0.05027017 0.050621599 0.050248407 0.050451238 0.050370336
0.05030559 0.05029745 0.050117012 0.050064161 0.050163042 0.050361518
0.050121684 0.050655372 0.050072189 0.049829051 0.050283059 0.05023741
0.050697777 0.050406817 0.050193071 0.050233155 0.05029599 0.050478946
0.050168466 0.050693508 0.050499085 0.050541919 0.050326332 0.050288972
0.050693002 0.05047071 0.050701007 0.050748002 0.05034408 0.050473046
0.050133195 0.050160635 0.050214626 0.049964342 0.050148766 0.05027983
0.049950164 0.049642708 0.049875107 0.049860161 0.049630564 0.05018907
0.049831238 0.050008625 0.049885456 0.04977791 0.050127249 0.049354061
0.049356386 0.049533077 0.049884595 0.049754526 0.049581058 0.049604449
0.049479928 0.049037173 0.049101572 0.049159918 0.049468596 0.049548764
0.04935497 0.049702972 0.04955836 0.049406927 0.04918921 0.049662072
0.049572393 0.049572393 0.049562007 0.049518008 0.049243428 0.04957509
0.049438555 0.049516186 0.049200915 0.049315073 0.049553305 0.049214207
0.049288902 0.049677432 0.049526777 0.049671281 0.049606588 0.04971309
0.049586456 0.049629282 0.049568191 0.049696699 0.050061088 0.049740944
0.049801081 0.049846966 0.049814999 0.049721982 0.050070733 0.049888447
0.049934249 0.049959548 0.049970943 0.050357018 0.050246891 0.050441291
0.050485749 0.050521053 0.050689157 0.050582651 0.050592799 0.050728064
0.050303854 0.050607346 0.05053572 0.050385285 0.050397232 0.050246011
0.050227702 0.050390795 0.050330054 0.050535671 0.050659899 0.050594997
0.050328422 0.050184324 0.050434619 0.050263681 0.050392043 0.050186202
0.050496511 0.05014414 0.050246812 0.050179191 0.050162427 0.050020054
0.050061271 0.050228193 0.049853161 0.050524335 0.050174884 0.050010335
0.05021641 0.050111916 0.050635614 0.050283805 0.050069023 0.050382271
0.050282776 0.050533138 0.050271206 0.050713271 0.050475106 0.050481666
0.050469179 0.050399303 0.050559107 0.050477624 0.050957158 0.050746005
0.050512232 0.05057276 0.050195903 0.050179385 0.05021495 0.050057728
0.050137162 0.050274972 0.049858741 0.049914051 0.049974889 0.049814828
0.049706534 0.049962062 0.049901668 0.049893692 0.04992526 0.049840003
0.049961291 0.049480699 0.049398653 0.049442511 0.04972424 0.049754102
0.04955557 0.049508639 0.049461011 0.049045529 0.049122151 0.049285047
0.049550872 0.049571902 0.049305364 0.049667444 0.049528457 0.049395535
0.049107753 0.049560398 0.04942403 0.04942403 0.049571011 0.049327366
0.049203616 0.049514476 0.049523573 0.049463365 0.049195893 0.049452271
0.049421802 0.049211103 0.049195267 0.049695212 0.049566228 0.049619734
0.049738839 0.049716823 0.049404047 0.049713615 0.049630586 0.049465504
0.050063618 0.049877424 0.049784239 0.049976159 0.049855653 0.049652565
0.049995918 0.049876999 0.050017696 0.049995225 0.049915366 0.050314412
0.050267398 0.050440934 0.050609007 0.050697353 0.050833069 0.050676014
0.050551176 0.050731011 0.050490379 0.050690833 0.050659448 0.050475709
0.050389953 0.050229143 0.050320841 0.05034228 0.050367419 0.050726525
0.050737448 0.050580494 0.050393753 0.050325911 0.050355345 0.050251674
0.050156329 0.050061561 0.050445739 0.049977444 0.05020164 0.050063048
0.050115619 0.050000168 0.049992461 0.050076004 0.049590014 0.050258648
0.050252464 0.050162323 0.050169501 0.05003006 0.050581288 0.050264172
0.050042901 0.050497327 0.050320845 0.050590519 0.050397292 0.050703291
0.050478172 0.050479177 0.050585032 0.050507005 0.0504882 0.050460011
0.051105246 0.050763067 0.050646447 0.050625078 0.050332874 0.050183199
0.050133079 0.05022043 0.05017503 0.050252702 0.049809024 0.050138392
0.049953345 0.049803481 0.049819648 0.04969966 0.049988095 0.049780745
0.04994845 0.04979885 0.049742058 0.049697243 0.049576581 0.049375415
0.049478065 0.049642157 0.0494982 0.049400374 0.049457025 0.049121324
0.049199294 0.049461238 0.049592819 0.049589969 0.049306225 0.049598254
0.049408197 0.049303055 0.0491441 0.049453676 0.049316075 0.049316075
0.049495008 0.049255099 0.049193054 0.049334779 0.049450576 0.04942251
0.04921161 0.049525749 0.049255703 0.049296301 0.049267858 0.049684916
0.049585361 0.049592491 0.049727835 0.049711872 0.049351469 0.049683437
0.049711466 0.049330845 0.049964178 0.049928393 0.049738891 0.050005626
0.050007585 0.04981057 0.04992567 0.049931195 0.050122429 0.050043322
0.049936052 0.050170511 0.050329253 0.050481223 0.05061445 0.050750472
0.05084252 0.050795011 0.050667007 0.050788 0.050707214 0.050784249
0.050729081 0.05061511 0.050447047 0.050295319 0.050463725 0.050414979
0.05048034 0.050776228 0.050664339 0.050498582 0.050484676 0.050424438
0.050268903 0.050273322 0.049988411 0.049854171 0.050267465 0.049897913
0.050193872 0.049909785 0.049970243 0.049981005 0.049909063 0.04998545
0.049451053 0.049977884 0.050217088 0.050212361 0.050131727 0.050018527
0.050524443 0.050338797 0.050141182 0.050520174 0.050394293 0.050625052
0.050521966 0.050719116 0.050545435 0.050521053 0.050651096 0.050582249
0.050520007 0.050471906 0.051082153 0.050803218 0.050753247 0.050666373
0.050502546 0.050223522 0.050049551 0.050378669 0.050236546 0.050213203
0.049797997 0.050207648 0.049835738 0.049871877 0.049927618 0.049496878
0.050027061 0.049762759 0.049896736 0.049676742 0.049623583 0.04989839
0.049736876 0.049370319 0.049283836 0.049433459 0.049416456 0.049307302
0.049461041 0.049249206 0.04931052 0.049629424 0.049530171 0.049588192
0.049358469 0.04944364 0.049246475 0.049157001 0.049281009 0.049381875
0.049250253 0.049250253 0.049367011 0.049298633 0.049233027 0.049104862
0.049276419 0.049403526 0.049246758 0.04946959 0.04910221 0.049394485
0.049485449 0.049627133 0.049518973 0.049568027 0.049538806 0.049683105
0.049429949 0.049564652 0.049780268 0.049357578 0.049853265 0.049851105
0.049711343 0.049985815 0.050189514 0.050101895 0.04995339 0.050064284
0.050229572 0.050121784 0.050058011 0.050021 0.050351456 0.050574001
0.050543007 0.050675146 0.050736412 0.050882187 0.050871052 0.050895005
0.050860189 0.050855339 0.050780717 0.050767876 0.050596997 0.050459083
0.050579093 0.050557062 0.050651848 0.050727915 0.050510935 0.050398491
0.050578438 0.050444476 0.050186105 0.0503335 0.049885135 0.049635161
0.050017055 0.049848124 0.050177049 0.049684457 0.049807061 0.049935043
0.049780041 0.04993837 0.049504437 0.04976422 0.050071977 0.050188333
0.050071497 0.050052159 0.050409392 0.050429065 0.050332282 0.05047714
0.050476823 0.050621726 0.050636135 0.050783522 0.050683107 0.050564058
0.050698575 0.05061233 0.050636236 0.050563633 0.050947156 0.050800126
0.050861038 0.050709061 0.050630223 0.050339386 0.050063048 0.050437912
0.050268959 0.050125211 0.04980449 0.050151154 0.049769066 0.050031986
0.049991608 0.04943255 0.049995027 0.049841389 0.049779244 0.049580198
0.049652282 0.049972951 0.049764324 0.049427241 0.049229503 0.049223244
0.049309805 0.049231485 0.049452972 0.049420219 0.049455732 0.049705956
0.049363535 0.049527068 0.049417004 0.049233243 0.049148094 0.049067046
0.049436022 0.049319852 0.04918113 0.04918113 0.049249046 0.049351543
0.049290035 0.048924029 0.049130358 0.049399234 0.049272511 0.049311962
0.049020246 0.049438499 0.049681924 0.04953403 0.049387205 0.049521293
0.049284127 0.049632914 0.049554411 0.049430653 0.049794175 0.04949763
0.049797818 0.049728792 0.049753033 0.049988884 0.050271995 0.050302397
0.050090387 0.050252117 0.050342869 0.050225627 0.050241377 0.049981061
0.050323058 0.050669011 0.050494041 0.050565001 0.050621055 0.05091517
0.051041003 0.050996158 0.050882105 0.050901055 0.050849378 0.050888509
0.050789591 0.050699294 0.050670207 0.050716631 0.050826691 0.050655033
0.050392576 0.050339796 0.050631374 0.050407361 0.05010267 0.050384652
0.049823981 0.049524643 0.049811613 0.049750675 0.050066441 0.049432363
0.049686238 0.049850021 0.049596049 0.0498439 0.0496815 0.049624156
0.049894787 0.05015111 0.04998761 0.05010581 0.050222874 0.050466165
0.050542444 0.050443787 0.050547376 0.050584443 0.05071817 0.050847117
0.050858479 0.050610196 0.050769467 0.050648026 0.050764665 0.050741706
0.0507892 0.050743002 0.05096101 0.05075334 0.050669152 0.050512403
0.05019119 0.050373491 0.050245959 0.049997944 0.049849089 0.050086901
0.04986003 0.050224338 0.049998209 0.049545228 0.049917005 0.049938306
0.049662124 0.049571086 0.049729474 0.049886804 0.049678683 0.049514834
0.049298827 0.049109828 0.049183439 0.049177561 0.049415655 0.049605735
0.049620364 0.04962109 0.049152177 0.049383447 0.049413417 0.049103178
0.049153131 0.049107362 0.049515821 0.049211387 0.049075011 0.049075011
0.049161308 0.0492911 0.049304046 0.048866559 0.049111024 0.049375009
0.049265191 0.049134333 0.049044095 0.049404528 0.04967434 0.049446169
0.04926835 0.049444899 0.049133226 0.049583446 0.049638655 0.049354602
0.049732443 0.049632009 0.049784638 0.049679939 0.049869258 0.050036781
0.050205894 0.050258227 0.050241191 0.050414477 0.050467797 0.050336584
0.050412796 0.050121158 0.050312065 0.050713036 0.050524022 0.050532024
0.050599005 0.050930183 0.05112702 0.051026776 0.050802004 0.050950214
0.050928183 0.050977912 0.05093905 0.050974838 0.050809093 0.050878428
0.050922763 0.050592061 0.050384346 0.050356083 0.050603915 0.050352734
0.050031893 0.050363883 0.049793851 0.049577795 0.049711019 0.049584746
0.049840745 0.049249697 0.049575262 0.049713019 0.049385 0.049622856
0.049822103 0.049528014 0.049745567 0.05011538 0.049931034 0.05017294
0.050040882 0.050438575 0.050682403 0.050465681 0.050595801 0.050542761
0.050765108 0.050853442 0.0510034 0.050691135 0.050882369 0.05074941
0.050851628 0.050960001 0.050688088 0.050703052 0.05102006 0.050803002
0.050647315 0.050677001 0.050362878 0.050274957 0.050210074 0.049899854
0.049991693 0.050106373 0.050060637 0.050335012 0.049976371 0.049786028
0.049837675 0.049971864 0.049607869 0.049606696 0.049723249 0.049713776
0.049575169 0.049582791 0.049415074 0.049127646 0.049098048 0.049170829
0.049341463 0.049732793 0.049736168 0.04937594 0.048985582 0.049205024
0.049316056 0.049153399 0.049205743 0.049226668 0.049465112 0.049051017
0.048956249 0.048956249 0.049079165 0.049102716 0.049237601 0.048943259
0.049198005 0.049313888 0.049222287 0.049000535 0.049147539 0.049311273
0.049446665 0.049396381 0.049214937 0.049356937 0.049176469 0.049525212
0.04964244 0.04936837 0.04964136 0.049692087 0.049749643 0.049749091
0.050014675 0.050082289 0.050081465 0.050044697 0.050293181 0.050443985
0.050559577 0.05044711 0.050532747 0.050423797 0.050395653 0.050696548
0.05061793 0.050620027 0.050712008 0.050942581 0.051176004 0.05098208
0.050736036 0.0510341 0.050995216 0.051086109 0.05101563 0.051231608
0.051039211 0.051032271 0.050891846 0.050545953 0.050472613 0.050431684
0.050515257 0.050310254 0.049996089 0.050238643 0.04978222 0.049725793
0.049664311 0.049391832 0.049558658 0.049178459 0.0493895 0.049493127
0.049202014 0.049290955 0.049797006 0.049445391 0.049623858 0.050065927