# vtk DataFile Version 3.0
axinsert(project(permute(???,2,0,1),0,L2),2)
ASCII
DATASET STRUCTURED_POINTS
DIMENSIONS 128 256 1
ORIGIN 0 0 0
SPACING 1 1 1
POINT_DATA 32768
SCALARS nrrd27403 float
LOOKUP_TABLE default
0.050014019 0.04998704 0.049985014 0.049959071 0.049989626 0.050016001
0.050046172 0.050032306 0.049937028 0.049977068 0.049987029 0.05001514
0.050011117 0.049992085 0.050020013 0.049989011 0.049991008 0.05002803
0.05002011 0.050000127 0.050003015 0.049982015 0.049973004 0.049995013
0.049943004 0.050009061 0.050071012 0.050017014 0.050032005 0.0500721
0.050005414 0.049949009 0.049932696 0.049939524 0.05004501 0.050003015
0.050016001 0.050020203 0.050013091 0.049991168 0.049987007 0.050051223
0.049995553 0.049977005 0.05000725 0.050054003 0.050005283 0.049924005
0.049982313 0.049958009 0.04999204 0.050022066 0.050023012 0.05003025
0.05002002 0.05002946 0.050011281 0.049957197 0.049978312 0.050037101
0.0500107 0.049941145 0.050000157 0.050017301 0.049996424 0.049986098
0.049999323 0.050008237 0.050013151 0.050014105 0.049986631 0.049978133
0.049987242 0.049946144 0.050020117 0.050012507 0.050006304 0.050002441
0.050002042 0.050069306 0.050039265 0.050007742 0.049959436 0.049961079
0.049991146 0.049966142 0.050009999 0.050004389 0.049945008 0.049979016
0.049994014 0.049972139 0.050044157 0.050006069 0.0499942 0.050041005
0.050021008 0.049992073 0.04998704 0.050011013 0.04998301 0.049977008
0.049999028 0.050000999 0.050039012 0.050026074 0.049988054 0.050017066
0.050003305 0.049965009 0.049966998 0.050017074 0.050054286 0.050022025
0.05000221 0.049959082 0.049961004 0.050005082 0.050003041 0.049989022
0.049996 0.049999017 0.050000004 0.04996701 0.049970049 0.050039262
0.050059002 0.050059002 0.050028015 0.049943004 0.05001213 0.049873024
0.049865182 0.050090089 0.050151065 0.050089084 0.049904011 0.049977031
0.050004024 0.050012004 0.049978007 0.049995061 0.050077029 0.049934998
0.049988013 0.050128002 0.050071154 0.049951021 0.04996901 0.049938004
0.049975008 0.049991004 0.049953002 0.050051142 0.050015029 0.050007999
0.050055005 0.050196014 0.04999302 0.049886003 0.049887002 0.049886089
0.050117008 0.050036017 0.050090078 0.05004631 0.049965136 0.049969178
0.050029218 0.050127372 0.049936146 0.049931318 0.050019171 0.050099295
0.049973045 0.049883138 0.050009213 0.050030325 0.049980372 0.049944706
0.050043181 0.050021779 0.050000053 0.050057177 0.049988028 0.049999226
0.050044179 0.050048955 0.049988031 0.049980901 0.050056588 0.050011482
0.049940534 0.050005551 0.050002865 0.049932688 0.049980152 0.050124601
0.05000947 0.049939863 0.049982224 0.049856246 0.049979053 0.050016563
0.049997095 0.05000829 0.05003811 0.050127372 0.050071072 0.04998536
0.049922053 0.049955461 0.050000068 0.04996068 0.050022203 0.050027352
0.049859405 0.050005261 0.049973529 0.04990837 0.050039407 0.050005089
0.049948316 0.050058018 0.050126072 0.049923345 0.049952019 0.050048109
0.049995027 0.049969595 0.049973045 0.050004385 0.050043005 0.050072197
0.049962062 0.050007064 0.050006077 0.049924094 0.049977031 0.050119299
0.050104316 0.049997196 0.049961109 0.049936052 0.049873188 0.04998
0.050073028 0.049985025 0.049973071 0.050047003 0.049952436 0.049905181
0.049996261 0.050001055 0.050112024 0.050112024 0.050017186 0.04996302
0.050038073 0.049919005 0.049867004 0.050044071 0.050136104 0.050101999
0.049936041 0.050011005 0.050042026 0.050013006 0.049932003 0.049998
0.050073005 0.049947999 0.049986023 0.050152 0.050083019 0.049937002
0.049948044 0.049960006 0.0500121 0.04996701 0.050077032 0.050024338
0.049937002 0.050020494 0.049987074 0.05013407 0.050025005 0.04991113
0.049943998 0.049917195 0.050034024 0.050079007 0.050134115 0.05009507
0.049979389 0.049995318 0.050042648 0.050059274 0.04994623 0.049949642
0.050029472 0.050000612 0.049955089 0.050012659 0.050052844 0.050182987
0.050038815 0.049808014 0.050024733 0.049993772 0.049934722 0.050050918
0.04999277 0.050039187 0.050103467 0.049975399 0.049978137 0.050102375
0.050069634 0.050014067 0.049907912 0.050016936 0.050016813 0.049887106
0.049956895 0.050096974 0.050025228 0.049914796 0.050036132 0.049921349
0.049897589 0.049975742 0.04995041 0.050039396 0.050047569 0.050035305
0.050073117 0.049981397 0.049948234 0.049982488 0.050030239 0.050004669
0.049989339 0.050014477 0.049905173 0.050019834 0.049979117 0.04995092
0.04997636 0.050010711 0.049925379 0.049966723 0.050107092 0.049931291
0.049952209 0.050067332 0.050063312 0.049976729 0.04998222 0.049999941
0.049979258 0.050046485 0.049945146 0.049997214 0.050010327 0.049938213
0.050060496 0.050113484 0.050008133 0.049960017 0.049947094 0.049956024
0.049865142 0.049972028 0.050096147 0.049979012 0.049968105 0.050093003
0.04991525 0.049926005 0.05001029 0.04992801 0.050069097 0.050069097
0.050019033 0.049992003 0.050031025 0.049995013 0.049963053 0.04995513
0.050066005 0.050114017 0.049910001 0.049980037 0.050054103 0.050031018
0.049954068 0.050000999 0.050073016 0.050004005 0.049993031 0.050132014
0.050037 0.049970046 0.050004013 0.049981065 0.049995061 0.049957022
0.050109088 0.050013058 0.050044078 0.050064575 0.049917255 0.050062239
0.050030038 0.049921121 0.049934041 0.049952187 0.049980361 0.050107088
0.050146554 0.050122116 0.050051544 0.050033376 0.05002984 0.050009388
0.050041612 0.049992446 0.05001919 0.049955066 0.049984127 0.050096855
0.05005889 0.050199017 0.050093487 0.04980763 0.050010059 0.050003257
0.049861968 0.050052471 0.05004273 0.049958222 0.050092846 0.049947202
0.049989637 0.050136101 0.050017759 0.050041273 0.049913842 0.04998941
0.050021701 0.049937438 0.04996324 0.049981177 0.049976237 0.049910665
0.050057277 0.049981602 0.049878486 0.04999458 0.04993286 0.050020587
0.050025567 0.04997538 0.050095275 0.05002838 0.049958568 0.04996654
0.050032455 0.049990434 0.04997848 0.049967416 0.049949225 0.049979657
0.050002046 0.050000705 0.049977154 0.050012819 0.049928147 0.049977992
0.050037436 0.049976651 0.04994582 0.0500727 0.050094623 0.049954861
0.050004359 0.049989894 0.049952261 0.05002173 0.049918178 0.050049379
0.050015628 0.049960449 0.050068017 0.050000243 0.049940161 0.049968019
0.04996616 0.049969044 0.049878292 0.049964152 0.050060224 0.049971018
0.049974184 0.050100002 0.049934208 0.049913071 0.049958128 0.049917005
0.050049119 0.050049119 0.050011005 0.049981005 0.050023001 0.050041009
0.050019011 0.049940005 0.04999001 0.050106104 0.049914002 0.049917031
0.05006003 0.050032012 0.049985062 0.050041001 0.050087009 0.050042
0.05001004 0.050093003 0.049975999 0.049986016 0.050092999 0.050003093
0.049971011 0.04999005 0.050105151 0.050018042 0.050114144 0.050088182
0.049911302 0.050025236 0.049990185 0.049906079 0.049962103 0.05004837
0.049987875 0.050125461 0.050143022 0.050097477 0.050065737 0.050055582
0.050049998 0.050014846 0.050135147 0.050037581 0.049990945 0.049983256
0.050069924 0.050109655 0.050064776 0.050145898 0.050086889 0.04988873
0.049990341 0.049985342 0.049845628 0.05003364 0.050077055 0.049912106
0.05010473 0.049935162 0.049974732 0.050122533 0.04996632 0.050022688
0.049930889 0.04998786 0.050016925 0.049976595 0.049926206 0.049895167
0.049939528 0.04992472 0.050028656 0.049974356 0.04989453 0.05004352
0.04995583 0.049981732 0.050005563 0.049958549 0.050079528 0.050056431
0.049982529 0.049962655 0.050003655 0.050002418 0.049993087 0.049926527
0.049966797 0.049923457 0.050004441 0.049998365 0.050002318 0.050009452
0.049952339 0.050060686 0.05004001 0.050011974 0.049957432 0.050041351
0.050084874 0.049915232 0.049995471 0.049965844 0.049957331 0.050007924
0.049884342 0.050106674 0.05003076 0.049997821 0.050012063 0.04990324
0.049906392 0.049957067 0.049976233 0.049993061 0.049920347 0.04995333
0.050018299 0.049966138 0.04995323 0.050097037 0.049974166 0.049892124
0.049902067 0.049926002 0.049987137 0.049987137 0.049992044 0.049961001
0.050020009 0.050040003 0.050012 0.049953029 0.049945001 0.05009212
0.049961999 0.049906 0.050079018 0.050003011 0.049981002 0.050101001
0.050089095 0.050041005 0.050017051 0.050059002 0.049980003 0.049979009
0.050136998 0.050018031 0.049966007 0.050056055 0.050099254 0.050011046
0.050116159 0.050109018 0.049943279 0.050017126 0.049971312 0.049886163
0.050035279 0.050154872 0.049997989 0.050136939 0.050142035 0.050076928
0.050067965 0.050081167 0.050082412 0.05003272 0.050154716 0.050087579
0.049981676 0.05004764 0.050154909 0.050084911 0.050082594 0.050112389
0.050073266 0.049955297 0.049969126 0.049946152 0.049886156 0.050006226
0.050081555 0.049925115 0.050106984 0.049939428 0.049941253 0.050077751
0.049931176 0.049970128 0.049939469 0.049988944 0.049993295 0.049974371
0.049905233 0.049860321 0.049907882 0.049933854 0.049982943 0.04995345
0.049918823 0.050048597 0.049978729 0.049967691 0.049994733 0.049963646
0.050067838 0.050031669 0.050001506 0.049999766 0.049977992 0.050063647
0.050009679 0.049907751 0.049949784 0.049890563 0.049995609 0.049954489
0.050008968 0.050011456 0.049981926 0.050111696 0.050083239 0.050045177
0.049995519 0.049997799 0.050071999 0.049876578 0.049948774 0.049947821
0.049974684 0.050008912 0.049881853 0.05013201 0.050045971 0.050010063
0.049939912 0.04986443 0.049872749 0.049918223 0.049967408 0.049999125
0.049983345 0.049953472 0.049993303 0.049953356 0.049916182 0.050081152
0.049983047 0.049867127 0.04985401 0.049951009 0.049922053 0.049922053
0.049967062 0.049945001 0.050018027 0.050012998 0.049977999 0.049947053
0.049938001 0.050080054 0.050023012 0.049959999 0.050107092 0.049971029
0.049959041 0.050145004 0.050076175 0.050013009 0.050015081 0.050035011
0.050026033 0.049958006 0.050121002 0.050038002 0.049991041 0.050126012
0.050099317 0.04998802 0.05009222 0.050124004 0.049984302 0.050030094
0.050008412 0.049896426 0.050127711 0.050202247 0.049991872 0.050141316
0.050133824 0.05009019 0.050100133 0.050124876 0.050122742 0.050055701
0.050122406 0.050137084 0.050000552 0.050093751 0.050204195 0.050085586
0.050108518 0.050121125 0.050077811 0.049967334 0.049970791 0.049915798
0.049928002 0.049988884 0.050066654 0.049955174 0.050058231 0.049951345
0.049925361 0.050015047 0.049907792 0.049933676 0.049917299 0.04995599
0.049950525 0.049961202 0.049921401 0.049837366 0.049871072 0.049932938
0.049949024 0.049953643 0.049930103 0.05002268 0.049979825 0.049977615
0.050001979 0.049974795 0.050085127 0.049994037 0.049997915 0.050056916
0.049978595 0.050101053 0.050010648 0.04993505 0.049936336 0.04989611
0.049997695 0.049903151 0.04999898 0.050001103 0.050002534 0.050114337
0.050111331 0.050059583 0.050031316 0.049973134 0.050056107 0.049873635
0.049892377 0.049940944 0.049984362 0.050023973 0.049911611 0.050118294
0.050043229 0.049984034 0.049893796 0.049871694 0.04984995 0.04988458
0.049942695 0.049977347 0.050026421 0.049941514 0.049988274 0.049931489
0.049884129 0.050036259 0.049959999 0.049856115 0.049819 0.049968027
0.049881998 0.049881998 0.049944032 0.049934998 0.050015014 0.049996998
0.049952008 0.049940012 0.049952023 0.050050005 0.050050009 0.050028004
0.050127055 0.049963001 0.049951062 0.050166003 0.050043114 0.049994033
0.050018087 0.050023019 0.050036062 0.049940046 0.050099015 0.050067037
0.05002008 0.050173 0.050105199 0.049982999 0.050089281 0.050136015
0.050027367 0.050046161 0.050079416 0.049949717 0.05018409 0.050183084
0.050003782 0.050133485 0.050119746 0.050131384 0.050154228 0.050166365
0.050167691 0.05010822 0.050094061 0.050194003 0.050048485 0.050109535
0.050224729 0.050114989 0.050125491 0.050140433 0.050084811 0.049961541
0.049997881 0.049897429 0.049959421 0.049985483 0.050035313 0.049972214
0.049971376 0.049945801 0.049919881 0.04994544 0.049898088 0.049920417
0.049871713 0.049895454 0.049895719 0.049954429 0.049928423 0.049809165
0.049846165 0.049925968 0.049931083 0.049963769 0.04992817 0.050000694
0.049971018 0.04999065 0.050033163 0.049986035 0.050109293 0.049998216
0.049983781 0.050096139 0.049997143 0.05007647 0.050002474 0.049990475
0.049954232 0.049930055 0.050000906 0.049884129 0.050001014 0.049964461
0.050010178 0.050094508 0.050107729 0.050051283 0.05005344 0.049971674
0.050015535 0.04990875 0.04985933 0.049938466 0.049987227 0.050033491
0.049938176 0.050076645 0.050010353 0.049937043 0.049881775 0.049891982
0.049847931 0.049875986 0.049911894 0.049941696 0.050024517 0.049912509
0.049988296 0.049902484 0.049856126 0.049968231 0.049928002 0.049874086
0.049799014 0.049951036 0.049862009 0.049862009 0.049931001 0.049929
0.050016001 0.050005 0.049949009 0.049958002 0.049960062 0.049997002
0.05002901 0.050061032 0.050120004 0.049978096 0.049976002 0.050173003
0.049998004 0.050005086 0.050027024 0.05002705 0.049996037 0.049924225
0.050120004 0.050096057 0.050031032 0.050188027 0.05010803 0.050019007
0.050125211 0.050153051 0.050068304 0.050048262 0.050146256 0.050024778
0.050190911 0.050148785 0.05004875 0.050133385 0.050121956 0.050169617
0.050212342 0.050188664 0.050202586 0.050198227 0.050103437 0.050258961
0.050122015 0.050121211 0.050233599 0.050146382 0.050136477 0.050148904
0.050080582 0.049978681 0.050027516 0.049888361 0.049995519 0.049984522
0.049995296 0.049961131 0.049887318 0.049918935 0.049895328 0.049873952
0.049905486 0.049900159 0.049826745 0.049851283 0.049832162 0.049924981
0.049885262 0.049796995 0.049842287 0.049918979 0.049916208 0.049964823
0.049917102 0.049997702 0.049974136 0.049997807 0.050070219 0.049993183
0.050114382 0.050053101 0.049989462 0.050098412 0.050021265 0.050027866
0.050003611 0.050032143 0.049994927 0.049973048 0.049997624 0.049920063
0.050029803 0.049925964 0.050004259 0.050069753 0.050085753 0.050027132
0.050070278 0.049985308 0.049960576 0.049959294 0.04986256 0.049928606
0.049990159 0.050017539 0.049933575 0.05001919 0.049961474 0.049893342
0.049882948 0.04989931 0.049847931 0.049881231 0.049890939 0.049907047
0.049988583 0.049883544 0.04998539 0.049869448 0.049819164 0.049903154
0.049903005 0.049907055 0.049791068 0.04990305 0.049846008 0.049846008
0.049933013 0.049922999 0.050021023 0.050023999 0.049963009 0.049994003
0.049957022 0.049935002 0.049980033 0.050041072 0.050085146 0.050003305
0.050026041 0.05016607 0.049969073 0.050028138 0.050035015 0.050042145
0.049950998 0.049899351 0.05017202 0.050113093 0.050035004 0.050182067
0.050115015 0.050082032 0.050185055 0.050172042 0.050109103 0.050037242
0.050193075 0.050094567 0.050185446 0.050153647 0.050098743 0.050165109
0.050154399 0.050185692 0.050270591 0.050197788 0.050220814 0.050296128
0.05015453 0.050321799 0.050203975 0.050156135 0.050235357 0.050174002
0.050156411 0.05015095 0.050069593 0.050019655 0.050041076 0.049895689
0.050034937 0.049969729 0.049962126 0.049914755 0.049829029 0.049886305
0.049844023 0.049808707 0.049915351 0.049853556 0.049799092 0.049836881
0.049768887 0.04984656 0.049797237 0.049810041 0.049846463 0.049913019
0.049905326 0.049947903 0.049905024 0.050004825 0.049989026 0.050003007
0.050093107 0.050009187 0.050098479 0.050120946 0.050027419 0.050079681
0.050049067 0.050007258 0.050028034 0.050036971 0.050034866 0.050011791
0.0499935 0.049995843 0.050075244 0.049922977 0.049995832 0.050049867
0.05005943 0.050003093 0.050074991 0.049996808 0.049925163 0.049997237
0.049892828 0.049906053 0.049983084 0.049979601 0.049903244 0.049952962
0.049909987 0.049859978 0.049877457 0.049888711 0.049835209 0.049877442
0.049883019 0.049878348 0.049935695 0.049867664 0.049969561 0.049830418
0.049773257 0.049857132 0.049884066 0.04992805 0.049795114 0.049845066
0.049817 0.049817 0.049954027 0.049911998 0.050017055 0.050027005
0.049974095 0.050029006 0.049953014 0.049888007 0.049934115 0.049993105
0.050034355 0.050029449 0.050068215 0.050149284 0.049968328 0.050047237
0.050030224 0.050064329 0.049931102 0.049878415 0.050212126 0.050116263
0.050046138 0.050176181 0.050131142 0.050140072 0.050238002 0.050184999
0.050156001 0.050035097 0.050226003 0.050152265 0.050206177 0.050209552
0.050130703 0.050229829 0.050206657 0.050190493 0.050334923 0.050210629
0.050238363 0.050366204 0.050235432 0.050376508 0.050269693 0.050216313
0.050227694 0.050210044 0.050193124 0.050160512 0.050063714 0.050062545
0.050031014 0.049929988 0.050061781 0.049938437 0.049947292 0.04984409
0.049798705 0.049862452 0.04978697 0.049758714 0.049899623 0.049790524
0.049781103 0.049827795 0.049719632 0.049738791 0.049701586 0.049826317
0.049840711 0.049900174 0.049896371 0.049921025 0.049901977 0.05000006
0.050000779 0.050013185 0.050096948 0.050045218 0.050077606 0.050163053
0.050087038 0.050067022 0.050081987 0.050027695 0.050071586 0.05001767
0.050063308 0.050045237 0.049999025 0.050075579 0.050114628 0.049969509
0.050002415 0.050041001 0.050034333 0.049989257 0.050058313 0.049993411
0.049919937 0.050008357 0.049931861 0.049875271 0.049955972 0.049946178
0.049881458 0.049891904 0.049865212 0.049827918 0.049856476 0.049862262
0.049815927 0.049852844 0.049879402 0.049852703 0.049879052 0.049854867
0.049935833 0.049788401 0.049733441 0.049820177 0.049865171 0.049929079
0.049802136 0.049796086 0.049764007 0.049764007 0.049988024 0.049897999
0.049993061 0.050000038 0.049959257 0.050051138 0.049960196 0.049865093
0.049907297 0.049956188 0.049980462 0.050040528 0.050074488 0.050128672
0.049986683 0.050056491 0.050014652 0.050084617 0.049934529 0.049882602
0.050215345 0.050107699 0.050063435 0.050182525 0.050165378 0.050180204
0.050255165 0.05019021 0.050219137 0.050060999 0.050261009 0.050205041
0.050258067 0.050287306 0.050153535 0.050303567 0.050258342 0.050212134
0.050405007 0.050238181 0.05027977 0.050397303 0.050330225 0.050424833
0.050313406 0.05028905 0.050219696 0.050257191 0.050240535 0.050183013
0.050070513 0.05009155 0.050008405 0.049982782 0.050062422 0.049897518
0.049943686 0.049777299 0.049793705 0.049846381 0.049738016 0.04972481
0.049840912 0.049734365 0.049753562 0.049790308 0.049688172 0.049637642
0.049634311 0.04982473 0.049826022 0.04987048 0.049881373 0.049892191
0.049908981 0.049974311 0.050003666 0.050034426 0.050094947 0.050103471
0.050071809 0.050176643 0.05014693 0.050078649 0.050116356 0.05007131
0.050116323 0.050008237 0.050084535 0.050078657 0.050022475 0.05012843
0.050140403 0.050043065 0.050032653 0.050045304 0.050014954 0.049999807
0.050022684 0.049969688 0.049926724 0.049993686 0.049958877 0.049845167
0.049909003 0.049937647 0.049889114 0.049848985 0.049832158 0.049787205
0.049820125 0.049826093 0.049795147 0.04981152 0.049868252 0.049826115
0.04982077 0.049830157 0.0498803 0.049745452 0.049709771 0.049776305
0.049841303 0.049912121 0.049800154 0.049757067 0.049696021 0.049696021
0.050013013 0.04988401 0.049952049 0.049947135 0.049916364 0.050050467
0.049976498 0.049855363 0.04989459 0.049949434 0.049942575 0.050020702
0.050042935 0.05010822 0.050008178 0.05005208 0.05000728 0.050087132
0.04994243 0.049917143 0.050194841 0.050096456 0.050079927 0.050194271
0.050216842 0.050208639 0.050235573 0.050198931 0.050290499 0.050117258
0.050302114 0.050269049 0.050318003 0.050357021 0.050194196 0.050365277
0.050303601 0.050270729 0.050469562 0.050283492 0.050351493 0.050407022
0.050423797 0.05047325 0.050345041 0.050368272 0.050235387 0.050318677
0.050292689 0.050214719 0.050089903 0.050112814 0.049984694 0.050033238
0.050042138 0.049860574 0.049932811 0.049742751 0.049807221 0.049825348
0.049697157 0.049695738 0.049742907 0.049696438 0.049705781 0.049719032
0.049664509 0.049566403 0.049608104 0.049796123 0.049809333 0.049822874
0.049855433 0.049864471 0.049917102 0.049944475 0.050014887 0.050063804
0.050102286 0.050167065 0.050096206 0.050183862 0.050191402 0.050116774
0.050144352 0.050118383 0.050150581 0.050032169 0.050104842 0.050113615
0.050062981 0.050142836 0.050158054 0.050109293 0.050079938 0.050060034
0.050006505 0.05003389 0.04999182 0.049942128 0.049922839 0.049963683
0.049964454 0.049820371 0.049858645 0.049949858 0.049912952 0.049826309
0.04981434 0.049748912 0.049772304 0.049780361 0.049767759 0.049764462
0.049843527 0.049795635 0.04976479 0.04979163 0.049810991 0.04970267
0.049698282 0.049715523 0.049803492 0.049878169 0.049775161 0.049720027
0.049634025 0.049634025 0.050005022 0.049871109 0.049910065 0.049882304
0.049856424 0.050022844 0.049986809 0.049846869 0.049887959 0.049960986
0.049924944 0.049972154 0.049992733 0.050089948 0.050012007 0.050041135
0.050010283 0.050064124 0.049940951 0.049967289 0.050174989 0.050094586
0.050089888 0.050200481 0.050267868 0.050235756 0.050201476 0.050212257
0.050362274 0.050184172 0.050348543 0.050339621 0.050372105 0.050409187
0.050269004 0.050411019 0.050359055 0.050362326 0.05052074 0.050339729
0.050444581 0.050424155 0.050508123 0.050526783 0.050382469 0.05044904
0.050300784 0.050395161 0.050347589 0.050250474 0.050119016 0.050137132
0.049973156 0.050063219 0.050017726 0.049843702 0.049896434 0.04974883
0.049829122 0.049792428 0.049652457 0.049658373 0.049630601 0.049665906
0.049643259 0.049634296 0.049630661 0.049519382 0.049609542 0.049750403
0.049797472 0.049768221 0.049829613 0.049845908 0.049911439 0.049936675
0.050047614 0.050093357 0.050126113 0.05021698 0.050150905 0.050205577
0.050224561 0.050171427 0.05016705 0.050169159 0.050178718 0.050093159
0.050126195 0.050146773 0.050111424 0.050134305 0.050172966 0.050151773
0.050131124 0.050079625 0.0500089 0.050072756 0.049982071 0.049928792
0.049903795 0.049927834 0.049945123 0.049801663 0.049821358 0.049957436
0.049923036 0.049814146 0.049811486 0.049725037 0.049718775 0.049723182
0.049727581 0.049715776 0.049798962 0.049759369 0.049715903 0.049747404
0.049737811 0.049657162 0.049681861 0.049639843 0.049744766 0.049816214
0.049722157 0.049679998 0.049596023 0.049596023 0.049954046 0.049853317
0.049879152 0.049823541 0.049798537 0.049974129 0.049973123 0.049833566
0.049874369 0.049954917 0.049917858 0.0499111 0.049946051 0.050073955
0.049993433 0.050022647 0.050011981 0.050022878 0.049932249 0.050012171
0.050170261 0.050109297 0.050094787 0.050197273 0.050298881 0.050262962
0.050180424 0.050231285 0.050423987 0.050247032 0.050393824 0.050407227
0.050427936 0.050449222 0.050371483 0.050457194 0.050443124 0.050468028
0.050557103 0.050406154 0.05054662 0.050467074 0.050579365 0.050593127
0.050442751 0.050535705 0.050427057 0.050488185 0.050408304 0.050290715
0.050163008 0.050174203 0.049980756 0.050073285 0.050006859 0.049857561
0.049839947 0.049778845 0.049840067 0.049747638 0.049592867 0.049601853
0.049527075 0.04962479 0.049577117 0.049553081 0.049576554 0.049479701
0.049610484 0.049700566 0.049788345 0.049728382 0.049820881 0.04984241
0.049894031 0.049963072 0.050097793 0.050119072 0.050167374 0.050248113
0.050228015 0.050245322 0.050254274 0.050233275 0.0501973 0.050231721
0.050217737 0.050175637 0.050150186 0.050178669 0.050154526 0.050126333
0.050189469 0.050171904 0.050174955 0.050102521 0.050016999 0.050094698
0.049993187 0.049940329 0.049883019 0.049895313 0.049912184 0.049787514
0.049801458 0.049942583 0.04989884 0.049801901 0.049813081 0.049715627
0.049666487 0.049658597 0.049675632 0.049661674 0.0497365 0.049716622
0.049674988 0.049701523 0.049662575 0.049605887 0.049648322 0.049561206
0.049662068 0.049726274 0.049641177 0.04964 0.049577031 0.049577031
0.049868096 0.049816541 0.0498574 0.049774792 0.049754802 0.049919304
0.049928494 0.049813274 0.049845882 0.04990213 0.049907487 0.049851697
0.049913965 0.050054498 0.049959645 0.049995638 0.049998626 0.049973611
0.04992535 0.050038803 0.050175805 0.050133936 0.050099112 0.050192978
0.0503002 0.050279438 0.050183047 0.050254256 0.05047217 0.050308924
0.0504294 0.05046802 0.05049704 0.050498195 0.050481919 0.050521266
0.05055185 0.05057418 0.050595079 0.050488014 0.050650086 0.050542306
0.050645765 0.050673991 0.050533094 0.050631713 0.050597448 0.0505955
0.050474916 0.050338157 0.050229996 0.050224818 0.050013296 0.050079156
0.050019767 0.049902622 0.049778249 0.049804725 0.049820758 0.049696915
0.049516216 0.049522445 0.049447279 0.049565017 0.049513724 0.049475122
0.049504187 0.04943924 0.049593151 0.049647659 0.049777042 0.049717356
0.049834151 0.04986174 0.04987973 0.050012652 0.050152909 0.050143898
0.050219737 0.050270315 0.050308503 0.050298717 0.050288338 0.050300051
0.050252911 0.050307941 0.050281245 0.050263323 0.050181232 0.05021622
0.050192278 0.050142184 0.050208654 0.050180983 0.050206799 0.050128002
0.050025105 0.050090048 0.050010964 0.049970571 0.049872681 0.049866054
0.04987656 0.049780022 0.049790882 0.049901966 0.049848877 0.049787074
0.049802866 0.04970289 0.049618583 0.049588632 0.049619153 0.04959929
0.04966332 0.049664605 0.049630176 0.049644921 0.049576167 0.049545635
0.04959356 0.049486514 0.049565308 0.049622372 0.049544264 0.049600001
0.049555052 0.049555052 0.049768187 0.049752649 0.049834847 0.04973701
0.049723253 0.049867455 0.049862012 0.049786877 0.049794622 0.049798425
0.049876627 0.049797859 0.049888361 0.050027836 0.04992272 0.04996125
0.049959213 0.04992738 0.049929209 0.050044153 0.050174411 0.050153848
0.050103988 0.050194003 0.050280839 0.050279032 0.050203383 0.050287344
0.050515749 0.050375748 0.050460227 0.050525598 0.050579216 0.050566908
0.050586112 0.050607257 0.050668173 0.050673243 0.050654765 0.050590388
0.050758027 0.050650012 0.050723378 0.050769445 0.050651565 0.050743192
0.05077602 0.050708324 0.050548505 0.050396126 0.050329138 0.050284058
0.050072819 0.05010071 0.050059382 0.049969383 0.049725898 0.049808923
0.049763165 0.049643338 0.049427349 0.049419299 0.049389333 0.049491312
0.049446471 0.049389958 0.04942273 0.049400792 0.049552888 0.04959378
0.049756814 0.049738221 0.049861375 0.04989972 0.049888339 0.050065212
0.050210539 0.050181717 0.050277911 0.050302539 0.050384324 0.050357945
0.050334677 0.050372921 0.050344884 0.050394654 0.050368119 0.050348513
0.050228458 0.050270993 0.050234105 0.050189868 0.050231405 0.050189923
0.05022461 0.050154079 0.050031886 0.050067026 0.050021984 0.050007991
0.049875841 0.049836989 0.049850281 0.049775079 0.0497755 0.049846355
0.04979248 0.049772922 0.049771156 0.049669214 0.049570307 0.049515504
0.049563285 0.049527645 0.049586717 0.04959831 0.049563739 0.049566407
0.049470715 0.049472272 0.049522709 0.049417768 0.049467482 0.049527522
0.049445458 0.049548015 0.049509067 0.049509067 0.049670286 0.04965964
0.049801406 0.049708169 0.049696833 0.049819663 0.04978079 0.049747474
0.049722876 0.049663756 0.049814969 0.049747434 0.049855992 0.049983066
0.049889527 0.049921665 0.04989855 0.049887016 0.049944814 0.050032396
0.050153796 0.050160211 0.050105244 0.050205551 0.050263599 0.050264414
0.050229743 0.050333381 0.050561152 0.050447442 0.050499026 0.050592508
0.050664987 0.050651286 0.050685909 0.050703969 0.0507732 0.050770395
0.050751068 0.050718285 0.050879352 0.050788101 0.050826129 0.050876189
0.050792109 0.050870918 0.050927568 0.050820973 0.050635953 0.050473183
0.050461493 0.050348207 0.050157558 0.050149962 0.050118577 0.050042517
0.049688466 0.049786743 0.04967748 0.049585834 0.049332283 0.049297396
0.049340613 0.049411267 0.049368579 0.049288187 0.049344469 0.049371097
0.049501859 0.04953891 0.049721833 0.049776059 0.049888555 0.04994848
0.049927741 0.050110627 0.050273847 0.050240509 0.050346006 0.050359026
0.050453559 0.050424602 0.050396692 0.050453681 0.050467644 0.050489113
0.050468881 0.050430994 0.050303772 0.050353579 0.050291691 0.050261155
0.050257575 0.050204538 0.050228257 0.050175633 0.050039873 0.050048843
0.050025478 0.050036315 0.049885441 0.049805406 0.049831439 0.049770471
0.049751408 0.049787901 0.049744606 0.049756438 0.049713522 0.049610816
0.049517784 0.049441397 0.049504004 0.049450621 0.04950678 0.049517397
0.049467869 0.049456973 0.049346473 0.049385056 0.049441013 0.049352117
0.049374711 0.049452763 0.049354743 0.04946911 0.049435049 0.049435049
0.049576368 0.049543608 0.049752839 0.049680326 0.049663465 0.049764078
0.049687967 0.04968841 0.049636021 0.049527414 0.049724441 0.049695414
0.049806729 0.049914997 0.049855825 0.049879994 0.049826451 0.049845234
0.049964372 0.050012797 0.050111976 0.050149947 0.050103523 0.0502274
0.050261494 0.050247572 0.050257508 0.050391179 0.050604999 0.050517216
0.05055473 0.050674066 0.050743546 0.050742697 0.050785732 0.050798532
0.05086334 0.050874546 0.050882075 0.050863858 0.051018175 0.050956588
0.050961003 0.050993029 0.050951652 0.051010489 0.051044859 0.050938699
0.050748229 0.050581727 0.050619017 0.050419353 0.050260711 0.050223883
0.050187089 0.050108701 0.049665716 0.049744833 0.049578968 0.049521383
0.049234279 0.049168598 0.049284577 0.049324561 0.049271092 0.049167845
0.049276605 0.049348023 0.049452968 0.04948689 0.049674038 0.049813908
0.049908668 0.050001282 0.049995009 0.050153021 0.050350308 0.050324406
0.050434444 0.05044711 0.05052644 0.050507344 0.05048487 0.050544329
0.050603971 0.050594039 0.050574783 0.050514583 0.050405476 0.050459128
0.050372552 0.050339662 0.050287146 0.050227601 0.050221846 0.050182898
0.050054077 0.050049588 0.050030015 0.050049022 0.049890399 0.04977563
0.049815174 0.049764074 0.049721736 0.049728923 0.049707148 0.049728155
0.049636412 0.049532712 0.049459066 0.049363326 0.049431339 0.049371123
0.04941858 0.049424607 0.049346577 0.049317736 0.049215663 0.049287345
0.049346626 0.049285755 0.049285121 0.049389169 0.049273014 0.049348317
0.049337011 0.049337011 0.049482409 0.049420603 0.049686924 0.049639579
0.049609113 0.049684957 0.04958066 0.049601071 0.049538322 0.049416881
0.049616214 0.04964577 0.049743682 0.049823213 0.049817193 0.049833015
0.049753714 0.049792521 0.049971029 0.049989451 0.050057951 0.050125733
0.050105501 0.050249934 0.0502747 0.050245833 0.050288618 0.050454814
0.050639577 0.050576381 0.050625831 0.050763242 0.050813921 0.0508327
0.050891355 0.050891507 0.05095116 0.050997607 0.051034063 0.051019266
0.051175777 0.051151644 0.05112315 0.051124047 0.051124237 0.051151793
0.051150918 0.05107265 0.050905541 0.05073281 0.050783634 0.050504424
0.050374523 0.050315294 0.050256856 0.050159018 0.049659666 0.049696427
0.049483664 0.049450148 0.049134627 0.049052976 0.049203388 0.049223188
0.049159791 0.049042109 0.049220044 0.049314506 0.04940993 0.049443465