# vtk DataFile Version 3.0
axinsert(project(???,0,L2),2)
ASCII
DATASET STRUCTURED_POINTS
DIMENSIONS 256 1 1
ORIGIN 0 0 0
SPACING 1 1 1
POINT_DATA 256
SCALARS nrrd81533 float
LOOKUP_TABLE default
0 0 0 0 0 0 0 0 0 0 0 0 0 0 0 0 0 0 0 0 0 0 0 0 0 0 0 0 0 2.4494898e-06
1.8867962e-05 0.00013508886 0.00094749726 0.0062989104 0.038880192
0.21487434 0.97508568 2.2962096 1.4343226 1.5355208 1.3526926 0.94138885
1.1568557 1.5627836 1.8224992 1.7565885 1.5236292 1.8023961 1.7555643
1.6472276 2.0414348 2.4770331 2.0959258 1.6260915 1.296236 1.1046854
0.99931288 0.93687868 0.89546114 0.86529171 0.841977 0.82262802 0.80596668
0.79150391 0.77819264 0.7657147 0.75387639 0.74255484 0.73172718 0.72131276
0.71119231 0.70167208 0.69252378 0.68390602 0.67570889 0.66809928
0.66090739 0.65381849 0.64653474 0.63957 0.63288659 0.62639296 0.62079567
0.61616504 0.61212081 0.60827935 0.60346079 0.59833622 0.59304881
0.58752596 0.58203769 0.57643545 0.57051671 0.56546342 0.56180406
0.55906582 0.5569331 0.55468476 0.55130762 0.54829329 0.54503912 0.54220974
0.54010344 0.53830457 0.53628421 0.53342921 0.52880269 0.52197087
0.51262325 0.50068921 0.48882923 0.4802554 0.47540274 0.47691801 0.48244148
0.49110195 0.5012272 0.51241279 0.51963848 0.51935822 0.52075565 0.55320102
0.62132812 0.65638745 0.67337579 0.67774063 0.68500769 0.68925405
0.68925405 0.69964421 0.72145408 0.71291232 0.65274394 0.56340504
0.50872427 0.45189029 0.40794274 0.37315848 0.3361657 0.30262575 0.28319439
0.28264716 0.32157364 0.39626929 0.45139155 0.46184158 0.44079447 0.3877117
0.28977039 0.18633899 0.13778898 0.12850872 0.12615217 0.13136888
0.14710535 0.17259897 0.2095121 0.2519663 0.29302716 0.32479128 0.3431443
0.35286349 0.36426127 0.38696128 0.41987339 0.45717278 0.49469545
0.53325665 0.5751093 0.62165934 0.67167795 0.72267711 0.77218223 0.81791055
0.85714853 0.88700014 0.90762013 0.91754901 0.91490477 0.89883929
0.87363273 0.84073776 0.80398518 0.76738459 0.73324251 0.70176357
0.67119932 0.63796216 0.59589177 0.53754264 0.47823882 0.43508777 0.3998808
0.35992318 0.30830556 0.23640558 0.14284994 0.057217356 0.010091503
0.00093429332 7.9705707e-05 5.830952e-06 0 0 0 0 0 0 0 0 0 0 0 0 0 0 0 0 0
0 0 0 0 0 0 0 0 0 0 0 0 0 0 0 0 0 0 0 0 0 0 0 0 0 0 0 0 0 0 0 0 0 0 0 0 0
