# vtk DataFile Version 3.0
axinsert(project(permute(???,2,0,1),0,L2),2)
ASCII
DATASET STRUCTURED_POINTS
DIMENSIONS 128 256 1
ORIGIN 0 0 0
SPACING 1 1 1
POINT_DATA 32768
SCALARS nrrd13641 float
LOOKUP_TABLE default
0.050010003 0.050025009 0.050010081 0.049973022 0.050007008 0.050044004
0.050016128 0.049963176 0.050001014 0.050015066 0.049962174 0.049988009
0.050020006 0.050007053 0.05001606 0.050018027 0.049988128 0.049951002
0.049958013 0.050017025 0.050035007 0.050002009 0.050005 0.050013009
0.050051998 0.050034344 0.050002068 0.049967151 0.049972042 0.049966037
0.050003003 0.050008159 0.049977019 0.049988013 0.049977031 0.049979106
0.049991008 0.050030012 0.050031051 0.049976062 0.049940031 0.050000202
0.05009203 0.050050061 0.050005365 0.049974054 0.050016157 0.050002038
0.050019085 0.049961116 0.050014 0.050053235 0.049966294 0.049968999
0.05001108 0.049979262 0.049973041 0.050009001 0.050019015 0.049966063
0.049955152 0.050030999 0.050003041 0.049993005 0.050017007 0.049996007
0.04995 0.050030481 0.050055236 0.049970999 0.049989067 0.049982999
0.050004061 0.049957078 0.049980313 0.050053101 0.050004002 0.050028037
0.050081067 0.049988423 0.04994503 0.049991138 0.049968001 0.049964193
0.050036274 0.050020058 0.049992032 0.04998 0.049957242 0.049998097
0.050017152 0.050003093 0.050027188 0.049963027 0.049935453 0.050066411
0.050065007 0.049978029 0.050013084 0.050000999 0.049969062 0.04997601
0.049971066 0.049984287 0.050057031 0.050060999 0.05000519 0.049986035
0.049989313 0.049943011 0.049996104 0.050000031 0.050029084 0.050016034
0.04998301 0.050014026 0.049987122 0.049978446 0.049984314 0.049992457
0.050052017 0.050044999 0.049973361 0.049997576 0.050025053 0.049981002
0.050005026 0.050005026 0.049960267 0.050012 0.049977392 0.049978126
0.049984049 0.050085422 0.050121162 0.049960077 0.050006043 0.050011002
0.049967062 0.049945094 0.049982209 0.050114043 0.050013006 0.049947131
0.049938198 0.049979314 0.049957 0.049984027 0.050030012 0.04997522
0.050093025 0.050028075 0.049979053 0.050022781 0.04996844 0.049955525
0.050025292 0.049972247 0.050073151 0.050057001 0.049873013 0.04994721
0.050038051 0.050050005 0.050032169 0.050067186 0.050036009 0.049916107
0.049863003 0.04996103 0.050112005 0.050171107 0.049981028 0.049963243
0.050013073 0.049953166 0.050042003 0.049962148 0.050014004 0.050066136
0.049919173 0.050035007 0.050021 0.049850058 0.049926274 0.050052162
0.04996613 0.049986541 0.050021999 0.050091062 0.050045125 0.049892999
0.049955077 0.049995124 0.049929291 0.050093006 0.050084017 0.049892299
0.049969099 0.049991272 0.049988147 0.049950264 0.049961023 0.05014015
0.050027002 0.050049093 0.050131001 0.049897373 0.049847152 0.050012343
0.049990043 0.049950033 0.050097037 0.050009008 0.049996354 0.050001033
0.049906053 0.050011016 0.050067011 0.049964 0.049978007 0.049983133
0.049901042 0.050117001 0.050069012 0.049929112 0.050076023 0.049989011
0.049995087 0.050040059 0.049943011 0.050035223 0.050076142 0.050103046
0.049979091 0.049995046 0.04999603 0.049863163 0.049932003 0.050059032
0.050093111 0.050031073 0.050000098 0.050023239 0.049897116 0.04996201
0.0500031 0.049975071 0.050084081 0.050108001 0.049856104 0.049921148
0.050107047 0.049970001 0.050037004 0.050037004 0.049858142 0.050002042
0.049940132 0.050036125 0.049958032 0.050011251 0.050117455 0.050046414
0.050057117 0.050008111 0.050004121 0.04990511 0.04990134 0.050132323
0.049994603 0.049888462 0.049936615 0.050056361 0.050056342 0.049953032
0.049925324 0.049961429 0.050103299 0.049984887 0.049900703 0.04995897
0.049880158 0.050035104 0.050131276 0.05001932 0.050150257 0.050106738
0.049878102 0.049919333 0.050088145 0.050144389 0.050096013 0.049999133
0.049956258 0.049914494 0.049930252 0.049987093 0.049996018 0.050135311
0.049964115 0.049982447 0.050019056 0.049920395 0.050008062 0.050017599
0.04999302 0.04999768 0.050002128 0.050052069 0.049993478 0.049834136
0.049923185 0.050056152 0.049934376 0.050014142 0.050116312 0.050125085
0.050061125 0.049856104 0.049879171 0.049974192 0.050020333 0.050107002
0.049985383 0.049897205 0.049977217 0.050026126 0.049932051 0.049990505
0.050066002 0.050089035 0.050021041 0.050025098 0.05004609 0.049857389
0.049872115 0.050055191 0.050097 0.049987007 0.050056003 0.050006017
0.050027035 0.050015006 0.049920049 0.050048009 0.05004723 0.049898073
0.049977049 0.050051004 0.050033201 0.050045453 0.049991023 0.049961485
0.050086092 0.049975317 0.050008059 0.050083119 0.04998311 0.050053239
0.050030053 0.050069232 0.049976081 0.049999278 0.050020054 0.049905229
0.049943179 0.050064459 0.050050098 0.050023202 0.050054073 0.050021306
0.049854103 0.050027326 0.050059285 0.049928609 0.049979012 0.050074104
0.049805004 0.049865019 0.050149102 0.050025124 0.050005008 0.050005008
0.049806006 0.049999114 0.049934007 0.050058197 0.049936999 0.049910244
0.050069287 0.050074518 0.050099384 0.050023556 0.049988456 0.049894582
0.049892347 0.050049417 0.049989227 0.049907725 0.0499539 0.050053585
0.050103106 0.049991552 0.049890637 0.049971435 0.050015431 0.049926508
0.049939889 0.049920168 0.049823478 0.050137501 0.050127584 0.050000936
0.050157763 0.050117556 0.049965926 0.04992805 0.050049555 0.050160579
0.050102498 0.049952783 0.049913842 0.049919698 0.049992695 0.050059821
0.050019193 0.050083648 0.049961414 0.049994558 0.0500363 0.049957458
0.049979061 0.050026525 0.049977038 0.049985602 0.05009811 0.049957089
0.049973682 0.049922086 0.049925033 0.049989071 0.04996755 0.050016053
0.050075304 0.050151218 0.050031397 0.049880367 0.049892299 0.049938157
0.050099488 0.050067998 0.049918007 0.049945123 0.049996596 0.050058063
0.049904443 0.050038129 0.050148021 0.050036009 0.049999103 0.050004032
0.050009139 0.04989114 0.049939003 0.050108004 0.050154056 0.049957056
0.050005998 0.050073002 0.050024159 0.050018001 0.049920343 0.050067019
0.050039455 0.049877003 0.050082587 0.050058443 0.050088584 0.050006777
0.050037276 0.050013289 0.050033655 0.049977895 0.049926609 0.050074406
0.050007466 0.050010644 0.050062243 0.050097875 0.049999394 0.049972031
0.049975205 0.049936499 0.049980395 0.050033469 0.050022241 0.050009463
0.050052188 0.050044291 0.049904179 0.050024845 0.050052032 0.049867522
0.049916029 0.050057344 0.049795084 0.049859509 0.050148055 0.050068259
0.049946036 0.049946036 0.04981311 0.049942065 0.049910001 0.050063223
0.049947008 0.049839161 0.050045114 0.050023373 0.050045665 0.050001144
0.049990069 0.049937233 0.04994056 0.049961582 0.049940553 0.04993517
0.04996229 0.050022237 0.050056815 0.050035331 0.049948469 0.049996156
0.049936231 0.049888168 0.04995938 0.049873967 0.049833875 0.050172608
0.050080959 0.04997639 0.050090168 0.050085101 0.050071649 0.049975336
0.050019901 0.050158951 0.050065849 0.049947873 0.049957749 0.049939655
0.050059266 0.050106458 0.050051868 0.050064113 0.049997892 0.049998645
0.050044734 0.050020743 0.049991306 0.050041489 0.049969159 0.04996242
0.050149269 0.049902208 0.049984414 0.050037097 0.049927007 0.049886093
0.049943257 0.050074231 0.050031062 0.050106309 0.050008476 0.049899392
0.049936369 0.04993115 0.050134316 0.050008129 0.049886938 0.049975101
0.050010748 0.050056037 0.049909864 0.050134022 0.050169174 0.050013017
0.050005209 0.050002001 0.049990114 0.049958006 0.050010011 0.050143067
0.050158031 0.049925052 0.04998406 0.050130021 0.050030265 0.05006212
0.049962584 0.050068524 0.050027579 0.049925499 0.05017234 0.050057299
0.050094396 0.049979392 0.050069448 0.050055671 0.050016854 0.049971633
0.049905594 0.050056729 0.050029069 0.049989946 0.050079811 0.050116993
0.050008088 0.049944039 0.049914718 0.049962386 0.049939912 0.05001758
0.050055813 0.04999787 0.05001983 0.05001862 0.049975391 0.049957044
0.049993046 0.049819376 0.049932003 0.050040554 0.049835011 0.049901024
0.050071023 0.050041165 0.049905021 0.049905021 0.049841043 0.049880028
0.049872011 0.050027184 0.049972173 0.049826168 0.050005198 0.049926657
0.049949128 0.049961682 0.049972631 0.049991209 0.050002113 0.04989158
0.049887311 0.049943175 0.049941402 0.049990918 0.049966104 0.050036702
0.050032645 0.04999917 0.049904682 0.049896825 0.049969874 0.049857743
0.049866777 0.050125983 0.050051376 0.049970638 0.050019301 0.050063848
0.05013828 0.050003868 0.049998809 0.050165609 0.050029866 0.049967088
0.050025281 0.049980722 0.050134156 0.050110262 0.050081242 0.050068729
0.050054986 0.05001606 0.050022434 0.050058465 0.050030075 0.050079908
0.049990639 0.04994854 0.050155673 0.04992656 0.050009303 0.050109323
0.0499181 0.049861364 0.049897041 0.05011154 0.050037019 0.050023407
0.050000388 0.049917385 0.049961321 0.049961209 0.050098117 0.049951527
0.049920451 0.049988177 0.050029371 0.050041042 0.049914531 0.050193008
0.050163392 0.050014026 0.050036259 0.050036006 0.050003048 0.05003408
0.050038017 0.050135184 0.050143 0.049979098 0.04998732 0.050160162
0.05008648 0.050099663 0.050037712 0.050069652 0.050023817 0.05001197
0.050215099 0.050075419 0.050098751 0.05001764 0.050074115 0.050064892
0.050026931 0.049954228 0.049936358 0.050011549 0.05003019 0.049970318
0.050070789 0.050137877 0.050008051 0.049911976 0.049896684 0.04997807
0.049848694 0.050017625 0.05008062 0.050010592 0.05001086 0.049954642
0.049982913 0.049894355 0.049930394 0.049804594 0.049966421 0.050001577
0.049883153 0.049934883 0.0499602 0.049970061 0.049865998 0.049865998
0.049855009 0.049839035 0.049834099 0.04995919 0.049962569 0.049825456
0.049920745 0.04983262 0.04988787 0.049939182 0.049927164 0.050013397
0.050013401 0.049822036 0.049871147 0.049926233 0.04988765 0.049958721
0.049912576 0.049986564 0.050082572 0.049988102 0.049897883 0.049951617
0.04997766 0.049883757 0.049901798 0.050041109 0.050033566 0.049983993
0.050007142 0.050084617 0.050155129 0.050015416 0.049967811 0.05015732
0.050041426 0.049993306 0.050072648 0.050042309 0.050201815 0.050091799
0.050122023 0.050084826 0.05009846 0.050066106 0.049988221 0.050078388
0.050068822 0.050123718 0.050037358 0.049959999 0.050139092 0.049998168
0.050029386 0.050120857 0.049909484 0.049929764 0.04989104 0.050104685
0.050054099 0.049961593 0.050006334 0.049926475 0.04998038 0.050008293
0.050041091 0.049916629 0.04997018 0.050009307 0.050065067 0.050031062
0.049935095 0.050168999 0.050149389 0.050044004 0.050083131 0.050103117
0.050043002 0.050081387 0.050052054 0.050111581 0.050122038 0.050094459
0.050015803 0.050171848 0.050160948 0.05011363 0.050110035 0.050092921
0.050060671 0.050109282 0.050215397 0.050128933 0.050117116 0.050103616
0.05009333 0.050049517 0.050043587 0.049932845 0.049936663 0.049950249
0.050013211 0.049941599 0.050048657 0.050142806 0.050021306 0.049898107
0.049927395 0.049970917 0.049785148 0.050019942 0.05005087 0.050030809
0.050026901 0.049894065 0.049941767 0.049852289 0.049876213 0.049818292
0.049940288 0.049945503 0.049904607 0.049909543 0.049857233 0.04990001
0.049825009 0.049825009 0.049836054 0.049802113 0.049795285 0.049882349
0.04990102 0.049793161 0.049817771 0.049773738 0.049883638 0.049933646
0.04985597 0.049969614 0.049956948 0.049742091 0.049876399 0.049909376
0.049839787 0.049926404 0.049920663 0.049905118 0.050077777 0.049978297
0.049890373 0.050027858 0.049974512 0.049917545 0.049914833 0.049956355
0.050002947 0.050007883 0.050048184 0.050131891 0.050156653 0.050034996
0.049946886 0.050134078 0.050100468 0.050016757 0.050100651 0.050112817
0.050253462 0.050095391 0.050171666 0.050116848 0.050129596 0.050141834
0.049987789 0.05011104 0.050099023 0.050147451 0.050083898 0.049994681
0.050122283 0.050071761 0.05004755 0.050094351 0.049931865 0.050019793
0.049912211 0.050073635 0.050055429 0.049942657 0.050022416 0.049909517
0.050003652 0.050062329 0.050019216 0.049914394 0.049991127 0.050048307
0.050115008 0.050034057 0.049988005 0.050102022 0.050138168 0.050102029
0.050149001 0.050171439 0.050090138 0.050101917 0.050083287 0.050119359
0.050118569 0.050204553 0.05006671 0.050187621 0.05020107 0.050111897
0.050181128 0.050156556 0.05014297 0.050192978 0.050190829 0.050213199
0.050151587 0.050169472 0.050132874 0.050035268 0.050044287 0.049905758
0.049898062 0.049910586 0.049994484 0.049922932 0.050021224 0.050105855
0.050036281 0.049917892 0.049965013 0.049956325 0.049779754 0.050003543
0.049981818 0.050021432 0.050033841 0.049842197 0.049908604 0.049824651
0.049814105 0.049816154 0.049836695 0.049881559 0.049898725 0.049835399
0.049764149 0.049844 0.049803004 0.049803004 0.049779076 0.049746331
0.04975149 0.049809732 0.049807329 0.049730144 0.049738575 0.049743313
0.049897224 0.049912393 0.049765326 0.049853962 0.049864635 0.049664535
0.049863223 0.049908899 0.049838144 0.049908198 0.049938444 0.049826503
0.050027512 0.049966328 0.049878865 0.050088804 0.049959175 0.049919859
0.049878143 0.049896106 0.049971517 0.050034255 0.050105356 0.050171133
0.050160356 0.050070401 0.04997091 0.050133117 0.050166931 0.050042849
0.050129741 0.050172176 0.050293781 0.050150812 0.050224245 0.05016993
0.050170623 0.050231088 0.050049372 0.050163671 0.050121281 0.050146069
0.050116334 0.050046418 0.050121441 0.050130147 0.050075766 0.050067522
0.049993955 0.050075609 0.049925551 0.050037567 0.050056923 0.049959488
0.05003763 0.049873415 0.050027933 0.050113257 0.050028488 0.049946222
0.049997188 0.05009114 0.050164033 0.050048016 0.050055005 0.050062057
0.050145008 0.050170183 0.050234132 0.050230861 0.050140567 0.050129656
0.050128087 0.050176356 0.050158422 0.050269451 0.050137483 0.050216455
0.050196338 0.050113901 0.050261833 0.05025607 0.050237246 0.050243597
0.050176673 0.050299607 0.050195362 0.05018628 0.050182082 0.050037727
0.050010901 0.049877778 0.049873013 0.04992466 0.049985282 0.049930297
0.049993798 0.050023876 0.050028685 0.049946696 0.049965225 0.049950596
0.049809311 0.049960434 0.049911205 0.049964137 0.050007679 0.049787905
0.049898278 0.049804632 0.049735803 0.049774647 0.049710758 0.049805857
0.049867641 0.049761403 0.049669154 0.049798004 0.049793009 0.049793009
0.049691092 0.049670648 0.049703658 0.049744327 0.049704559 0.049659193
0.049702976 0.049716681 0.049875867 0.049847942 0.049671426 0.049697828
0.049769424 0.049608693 0.049816359 0.049918499 0.049881414 0.049911346
0.049913332 0.049774807 0.049945764 0.049939487 0.049869318 0.050106928
0.049944051 0.049883023 0.049808893 0.049871132 0.049971428 0.05006028
0.050137848 0.050183725 0.050162256 0.050108351 0.050050575 0.050179143
0.050206989 0.050080903 0.050179884 0.050212849 0.050327234 0.050243393
0.050271399 0.050232675 0.050234362 0.050323855 0.050159678 0.050221164
0.050149482 0.050148174 0.050143104 0.050105251 0.050144948 0.050179441
0.0501201 0.050064512 0.050072961 0.050092597 0.049923871 0.05000063
0.050078329 0.049991325 0.050042894 0.049852319 0.050049875 0.050145175
0.050031669 0.049994189 0.050026294 0.050123017 0.050201118 0.050072003
0.050102033 0.050093092 0.050189041 0.050247457 0.050314561 0.050289184
0.05021238 0.050187621 0.050175685 0.05027359 0.05023839 0.050300848
0.050228432 0.05025702 0.050176073 0.050144549 0.05034405 0.050362926
0.050304055 0.050265592 0.050203945 0.050353732 0.050233282 0.050174281
0.050235555 0.050044563 0.049954291 0.04987387 0.049895812 0.049984936
0.049986642 0.049957842 0.049964704 0.049918007 0.049982976 0.049950626
0.049913999 0.049956653 0.049839154 0.049890086 0.049851615 0.049863923
0.049949538 0.049733698 0.049891185 0.049782008 0.049650505 0.049707986
0.049612068 0.049720429 0.049804796 0.049706511 0.049578283 0.049751032
0.049759034 0.049759034 0.049587175 0.049587797 0.049639847 0.049678065
0.049601972 0.049586263 0.049694635 0.049670558 0.049800135 0.049739417
0.049589254 0.049543478 0.049679678 0.049582694 0.049742702 0.049914613
0.049936008 0.049916748 0.04984 0.049742725 0.049845386 0.049895357
0.049861975 0.050081406 0.049936201 0.049838804 0.049762525 0.04988534
0.050011586 0.050090469 0.050135821 0.05016974 0.050158672 0.05013936
0.050167304 0.050265152 0.050227582 0.050136168 0.050254896 0.05024676
0.050361909 0.050339993 0.050305802 0.050291687 0.050311584 0.050415285
0.050275393 0.050264273 0.050197296 0.05018536 0.050191633 0.050167371
0.050198082 0.050240804 0.050182726 0.05008959 0.050137181 0.050093893
0.049917165 0.049968924 0.050127558 0.050025325 0.050039079 0.049877342
0.050069582 0.050155193 0.050018553 0.050035208 0.050092291 0.050152004
0.050229128 0.050106075 0.050124019 0.050182171 0.050266214 0.050339922
0.050371211 0.050359566 0.050318561 0.050272822 0.05022981 0.050387345
0.050340462 0.050336666 0.050337497 0.050313119 0.050187454 0.050219506
0.05040884 0.050437603 0.050334748 0.05028154 0.050281815 0.05037025
0.050257679 0.050174151 0.050272997 0.050035704 0.049911037 0.049911335
0.049962431 0.050053291 0.049991094 0.049987838 0.049931709 0.049818564
0.04990007 0.049913753 0.049831592 0.049962539 0.049839828 0.04979964
0.04979917 0.04973742 0.049870927 0.04969234 0.049856838 0.04974746
0.049578678 0.049637821 0.049541835 0.049637254 0.049715362 0.049646761
0.049501464 0.049691189 0.049676042 0.049676042 0.049485352 0.049509652
0.049533106 0.049594875 0.049505763 0.049503278 0.049681019 0.049604245
0.049693339 0.049610242 0.049517531 0.049412549 0.04958649 0.049576547
0.049662065 0.049877103 0.049955737 0.049889114 0.049745515 0.049708851
0.049744092 0.049844548 0.0498459 0.050031077 0.049923647 0.049812697
0.049784202 0.049934231 0.050066981 0.050121441 0.050115541 0.050142586
0.050163995 0.050159972 0.050287973 0.050364535 0.05026086 0.050216019
0.050344672 0.050292674 0.050401732 0.050418552 0.050333865 0.050342001
0.050387334 0.050500378 0.050367497 0.050294675 0.05026833 0.050267555
0.050282966 0.050234888 0.050279722 0.050319366 0.050256751 0.050135896
0.050173685 0.050100479 0.049913522 0.04995349 0.050197616 0.050063547
0.050032128 0.049947523 0.050083388 0.050160393 0.050017279 0.050066203
0.050184112 0.050189037 0.050258014 0.050149161 0.05014604 0.050279334
0.050365523 0.050448578 0.050409961 0.050445303 0.050443847 0.050373118
0.050299782 0.05050258 0.050449971 0.050406832 0.050458897 0.050393425
0.050253842 0.050329737 0.050454367 0.050474711 0.050355099 0.050312448
0.050387051 0.050368782 0.050269675 0.050202064 0.050269488 0.050014686
0.049921297 0.049972497 0.05003918 0.050091706 0.049981657 0.049998835
0.049896445 0.04975453 0.049793787 0.049838796 0.049750891 0.049945377
0.04979891 0.049707457 0.049749233 0.04960518 0.049786452 0.04967013
0.04978152 0.049697649 0.049533591 0.04955833 0.049469873 0.049560223
0.049608104 0.049554206 0.04943756 0.049603511 0.049557004 0.049557004
0.049393523 0.049437463 0.049363341 0.049485542 0.049416751 0.049401954
0.049636692 0.049524162 0.049585782 0.049482543 0.049448501 0.049308151
0.049484521 0.049569417 0.049583498 0.049790297 0.04991255 0.049814101
0.049654998 0.049652375 0.049657576 0.049801473 0.049816485 0.049974542
0.049898695 0.049800441 0.049865786 0.049998503 0.050097555 0.050143674
0.050099086 0.050122589 0.050192282 0.050175644 0.050383214 0.050445661
0.050326716 0.050326429 0.050437775 0.050350558 0.050444849 0.0504863
0.050374426 0.050393965 0.050457932 0.050586045 0.050442442 0.050330203
0.050352246 0.05037532 0.050405104 0.05032045 0.050385915 0.050405987
0.050331984 0.050205283 0.050187133 0.050121065 0.049910836 0.049967129
0.050268404 0.050104093 0.050033107 0.050027844 0.050088488 0.050194759
0.050064117 0.050105147 0.050287001 0.050226055 0.050294049 0.050201144
0.050188381 0.050344478 0.050482877 0.050558157 0.050454371 0.05054025
0.050557576 0.050476935 0.050389685 0.050618313 0.050563209 0.050514232
0.050582808 0.050501619 0.050359856 0.050448153 0.050494023 0.050499845
0.050401591 0.050358176 0.050485753 0.050376475 0.050278764 0.050241664
0.050224841 0.05000326 0.049984157 0.050014213 0.050095126 0.050084502
0.049946658 0.049974676 0.049864639 0.049733888 0.04967846 0.049746744
0.049684569 0.049885251 0.049722705 0.049638659 0.049707606 0.049488857
0.049693283 0.049649272 0.049674787 0.049633492 0.049498737 0.049451698
0.049380779 0.049476996 0.049494527 0.04942869 0.049376559 0.04947475
0.049435027 0.049435027 0.049298536 0.0493715 0.049155377 0.049349744
0.04933532 0.049292903 0.049556356 0.04943407 0.049483951 0.049358681
0.049375933 0.049228139 0.049393188 0.049542904 0.049506396 0.049646951
0.049799722 0.049720783 0.049570844 0.049572363 0.049591068 0.049771767
0.049770985 0.049913283 0.049862307 0.049774218 0.049954012 0.050052598
0.050077658 0.050145905 0.050091375 0.050127584 0.050244268 0.050191637
0.050437484 0.050489344 0.05041711 0.050456971 0.050525762 0.050411664
0.050480459 0.050566517 0.050449725 0.050462805 0.050524525 0.050673693
0.050521169 0.050391156 0.050431438 0.050471518 0.050528008 0.050427925
0.05050832 0.050464198 0.050411507 0.050308347 0.05019293 0.050143156
0.049899749 0.050016392 0.050312914 0.050122947 0.050060086 0.050070196
0.050092027 0.050280083 0.05016711 0.050174091 0.050378025 0.050255012
0.050313115 0.050265018 0.050251555 0.050376341 0.050613873 0.050644975
0.050511815 0.050640207 0.050642893 0.050575253 0.050494675 0.0507381
0.050676022 0.050640892 0.05070677 0.050634451 0.050475366 0.050550561
0.050541706 0.050550349 0.050482828 0.050410353 0.050561931 0.050400309
0.050287325 0.050263181 0.050167266 0.050025515 0.050065573 0.050012108
0.050107189 0.050038271 0.04988981 0.049906734 0.049842279 0.049737066
0.049569909 0.049661323 0.049615342 0.049778819 0.049635507 0.049613535
0.049684104 0.049404595 0.049578339 0.04960613 0.049559481 0.049547132
0.049434971 0.04931457 0.049288146 0.049374007 0.049387481 0.049291931
0.049298551 0.049317602 0.049336057 0.049336057 0.049174346 0.049304944
0.04897416 0.049200289 0.049266066 0.04919501 0.049455471 0.049336374
0.049371965 0.049229294 0.049312823 0.049187608 0.049341582 0.049486052
0.049420036 0.049463026 0.049640071 0.049653169 0.049492143 0.049473114
0.049532369 0.04974236 0.049717698 0.04984111 0.049827434 0.049724545
0.049989205 0.050081689 0.050009966 0.050128978 0.050093826 0.050163299
0.050300587 0.050211441 0.05044765 0.05048506 0.050507843 0.050580144
0.050610151 0.050466683 0.050506745 0.050686397 0.050574165 0.05056186
0.05058581 0.050745118 0.050610043 0.05048579 0.050494775 0.050544176
0.050623599 0.050550081 0.050615828 0.050473519 0.050490342 0.050444815
0.050200019 0.050150629 0.049878124 0.050090898 0.050302424 0.050092656
0.050117064 0.050044551 0.050105039 0.050411221 0.050300349 0.05025911
0.050419025 0.050282102 0.050298002 0.050334163 0.050327122 0.05040402
0.050744325 0.050689779 0.050571531 0.050741505 0.050710816 0.050669834
0.050614886 0.050856501 0.050780114 0.050761208 0.050829474 0.050792005
0.050586216 0.050633669 0.050598525 0.05063599 0.050585035 0.050462473
0.050610587 0.050424486 0.050297204 0.050259899 0.050126255 0.05008221
0.050120801 0.049981322 0.05007888 0.04996869 0.049832363 0.049806871
0.04983348 0.049726658 0.049484175 0.049605668 0.049520571 0.049649756
0.049574073 0.049636647 0.049672876 0.049357288 0.049433324 0.049534831
0.049457371 0.049430668 0.049304523 0.049165126 0.049207754 0.04925717
0.049302239 0.04916377 0.049187582 0.049165253 0.049265012 0.049265012
0.049008146 0.049228691 0.048884898 0.049052358 0.049205404 0.049119752
0.049351975 0.049236678 0.049246952 0.04909838 0.049277503 0.04919301
0.049324565 0.049405832 0.049324416 0.049286094 0.049480196 0.049627088
0.049426369 0.049369849 0.049462844 0.049693286 0.049667392 0.049755592
0.049800061 0.049679495 0.049954772 0.050085124 0.049924437 0.050109539
0.05011693 0.050219368 0.050340418 0.050240111 0.050420791 0.050449792
0.050590113 0.050664868 0.050693244 0.05052384 0.050532386 0.050855193
0.050742839 0.050689999 0.05064543 0.050784085 0.050696403 0.050601397
0.050543472 0.050602861 0.050691307 0.050650496 0.050679415 0.050430026
0.050561968 0.050582018 0.050204169 0.050137874 0.049857348 0.050150886
0.050224174 0.050011583 0.050174013 0.049952045 0.050134961 0.050540399
0.050421257 0.050306387 0.050383132 0.050314296 0.05027565 0.05038647
0.050410256 0.05045547 0.050848022 0.050695021 0.050621036 0.050835025
0.050783101 0.050771452 0.050763041 0.050961033 0.050867606 0.050866414
0.050949175 0.050975595 0.05070122 0.050717231 0.050663941 0.050732374
0.050680909 0.050518151 0.050629504 0.050416745 0.050302483 0.050245479
0.050123893 0.050154954 0.050123908 0.049967553 0.050032932 0.049898859
0.04980316 0.049709223 0.049847748 0.049664482 0.049433399 0.049591333
0.049396243 0.049533375 0.049555264 0.049684133 0.049659204 0.049346261
0.049274549 0.049456164 0.049372938 0.049286067 0.049114794 0.049026959
0.049137864 0.049154308 0.049248081 0.049055442 0.049046688 0.049042083
0.049210016 0.049210016 0.048824057 0.049135961 0.048897788 0.048912462
0.049145967 0.049063705 0.049255054 0.049144045 0.049126614 0.04899675
0.049276851 0.049221486 0.049294218 0.049316864 0.049235649 0.049176089
0.049369585 0.049607325 0.049390562 0.049288031 0.049372431 0.049622647
0.049630314 0.04966785 0.049783785 0.049680028 0.049883187 0.050073665
0.049871929 0.050111745 0.05017161 0.050272029 0.050365161 0.050282028
0.050376166 0.050419874 0.050669756 0.050702877 0.050781947 0.050606195
0.050571911 0.051042583 0.050932162 0.050835781 0.050721191 0.050798722
0.050765768 0.050714847 0.050601028 0.050666288 0.050751165 0.050688073
0.050679319 0.050356358 0.050615087 0.050633304 0.050215051 0.05010128
0.049869999 0.050144121 0.050092112 0.049906656 0.050168879 0.049824893
0.050176136 0.05060209 0.050485231 0.050274707 0.050264046 0.050367866
0.050275616 0.050434694 0.050488424 0.050532069 0.050907154 0.050682206
0.050667427 0.050907142 0.050872687 0.050891202 0.050951 0.051046688
0.050953247 0.050968084 0.051062409 0.051172543 0.050823592 0.050818622
0.050738331 0.050805215 0.050754532 0.050590891 0.050609935 0.050362322
0.050293494 0.050244763 0.050171401 0.050215695 0.050076645 0.050008625
0.050006595 0.049862023 0.049824525 0.049658068 0.049885929 0.049538143
0.049420267 0.0496029 0.049274679 0.049466938 0.049553726 0.049714316
0.049623709 0.049364351 0.049146969 0.049397655 0.049299635 0.049139127
0.048919842 0.048911292 0.049055949 0.049094278 0.049204037 0.0489663
0.048904851 0.048940126 0.049140055 0.049140055 0.048683051 0.049022228
0.048952918 0.048779923 0.049076963 0.049017157 0.049168821 0.049052969
0.049032595 0.048957702 0.049287558 0.049220014 0.049199924 0.049234889
0.049173977 0.049160924 0.049325284 0.049544778 0.049391195 0.04925245
0.049278393 0.049546801 0.049608458 0.04960065 0.049770974 0.049747732
0.049833085 0.050052166 0.049894344 0.050153457 0.050241847 0.050306357
0.050392151 0.050320521 0.050341655 0.050430976 0.0507477 0.050713167
0.05087287 0.050737195 0.050633632 0.051190063 0.051101927 0.050981741
0.050844003 0.050837003 0.050823219 0.050817199 0.050677292 0.050763909
0.050792426 0.05068237 0.050600123 0.050318394 0.050597902 0.050546013
0.050224677 0.050049003 0.049917236 0.050053075 0.049930084 0.049812619
0.050043646 0.049699966 0.050198529 0.050542891 0.050465044 0.050173651
0.050104711 0.050432563 0.050298221 0.050501883 0.050546572 0.050619163
0.05092724 0.050676711 0.050746292 0.050960418 0.050982054 0.051023837
0.05117486 0.051121999 0.051066115 0.051083621 0.051164269 0.051345944
0.050943017 0.050929409 0.050825309 0.050835375 0.050813876 0.050691631
0.050547872 0.050288182 0.050264239 0.050257131 0.050263096 0.050228503
0.050012637 0.050095104 0.050020937 0.049880926 0.049893957 0.049678229
0.049940273 0.049390111 0.049442131 0.049608756 0.049199801 0.049454983
0.049521737 0.049684968 0.049560171 0.049398988 0.049093321 0.049364146
0.049225766 0.049030576 0.048796386 0.048826702 0.048948433 0.04907462
0.049126893 0.048897557 0.048798926 0.048830517 0.049024034 0.049024034
0.0486391 0.048893303 0.04896028 0.048659757 0.048995178 0.04898103
0.049097739 0.048943449 0.04895243 0.048985019 0.049259145 0.049140371
0.049045485 0.049164314 0.049148668 0.049212135 0.049323261 0.049430449
0.049407002 0.049279496 0.049231507 0.04949145 0.049589265 0.049570765
0.049761854 0.049864873 0.049841337 0.050016772 0.049998976 0.050234195
0.050289821 0.050333157 0.05044052 0.050337978 0.050352056 0.05049454
0.050808325 0.050732307 0.050956234 0.050918575 0.050724335 0.051244806
0.051216226 0.051116131 0.051023114 0.050959747 0.050893996 0.050922159
0.050773319 0.05089673 0.050825112 0.050671004 0.05050702 0.050338633
0.050470568 0.050343346 0.050203126 0.049990855 0.049941853 0.049905695
0.049757011 0.049740069 0.049787365 0.049586501 0.050158799 0.050347108
0.050349981 0.050045423 0.049983509 0.050459698 0.050320331 0.050592553
0.050589334 0.050702486 0.050933976 0.050699085 0.050879683 0.051021814
0.051111169 0.051156662 0.051398151 0.051223375 0.051213522 0.051232129
0.05125913 0.051456958 0.051039651 0.051023379 0.050922748 0.050843872
0.050865211 0.050822217 0.050466664 0.050251346 0.05022895 0.050274763
0.050361708 0.050173607 0.049983654 0.050179832 0.050075281 0.049956325
0.049997047 0.049755879 0.049988259 0.049295977 0.049483951 0.049580578
0.049196389 0.049472798 0.049428675 0.049576249 0.049472012 0.049429473
0.049129453 0.04932965 0.04914166 0.048995584 0.048788425 0.048773646
0.048823331 0.049057364 0.048984412 0.048848204 0.048731737 0.048700109
0.048857003 0.048857003 0.048695195 0.048751 0.04886983 0.048564829
0.04891023 0.048964087 0.049038373 0.048799377 0.048852891 0.04902764
0.04915233 0.048987217 0.048887145 0.049094867 0.049152024 0.049265049
0.049320485 0.04930383 0.049401805 0.049361765 0.049279921 0.049470589
0.049559362 0.049576715 0.049756564 0.049984809 0.049908932 0.049969815
0.050140966 0.050339498 0.050296422 0.050373819 0.050512396 0.050343081
0.050436698 0.050594334 0.050841283 0.050791785 0.051018354 0.051128563
0.050853066 0.051219389 0.051273189 0.05124012 0.051238094 0.051179964
0.051019467 0.051034976 0.0508998 0.05102855 0.050872754 0.050699122
0.050495233 0.050380658 0.050277062 0.050100926 0.050138112 0.049898446
0.049877994 0.049737904 0.049578089 0.049660038 0.049454156 0.049470626
0.050008461 0.050039787 0.050139528 0.049917795 0.049955841 0.050416797