# vtk DataFile Version 3.0
axinsert(project(permute(???,2,0,1),0,L2),2)
ASCII
DATASET STRUCTURED_POINTS
DIMENSIONS 128 256 1
ORIGIN 0 0 0
SPACING 1 1 1
POINT_DATA 32768
SCALARS nrrd67313 float
LOOKUP_TABLE default
0.050049067 0.049934264 0.049941104 0.050019071 0.050044015 0.049994014
0.049951028 0.04999752 0.050066154 0.050046004 0.049997013 0.049970053
0.049983203 0.050021 0.049974006 0.050012153 0.049993098 0.049951285
0.049952008 0.050005935 0.050054152 0.050040174 0.049998999 0.050004099
0.050049156 0.049953096 0.049959458 0.050005022 0.049946278 0.049974419
0.050020613 0.050035868 0.049994137 0.049978502 0.050023176 0.050033309
0.050005 0.049995463 0.049954057 0.049920697 0.050014995 0.050043181
0.050015457 0.050063323 0.05000101 0.049999543 0.049984001 0.049949225
0.050055329 0.050009038 0.049956329 0.05003478 0.050032999 0.050004318
0.049978022 0.050027434 0.049980033 0.049952932 0.049934004 0.050049946
0.050035071 0.049975753 0.049991123 0.050029323 0.049993105 0.049957339
0.050020806 0.050007347 0.050055649 0.050023001 0.05000224 0.049985051
0.049985088 0.050081298 0.049999047 0.049970102 0.050002005 0.049996089
0.049995039 0.049952094 0.049982369 0.050051335 0.050015029 0.049961075
0.050020024 0.050009001 0.049988057 0.050030049 0.050021183 0.049925003
0.049942147 0.050012566 0.0500261 0.050007381 0.049982078 0.050011769
0.050013028 0.049966112 0.049992077 0.050005279 0.050011206 0.050011128
0.050004061 0.050017189 0.049975026 0.049994014 0.050018094 0.050021131
0.049990002 0.049968999 0.050001137 0.050021011 0.050020002 0.050019126
0.050011002 0.049987167 0.049971037 0.049973063 0.049983248 0.049990006
0.050011065 0.050002046 0.049977031 0.049986072 0.05000503 0.050023101
0.050051 0.050051 0.050060999 0.049890112 0.04988401 0.050042018
0.050062019 0.049926169 0.04991905 0.049941085 0.050077565 0.050156139
0.049996372 0.049874261 0.049969796 0.050069124 0.049965687 0.04999727
0.049982969 0.049966563 0.049950264 0.049914263 0.050035942 0.0500587
0.049995437 0.050017901 0.050060209 0.049917992 0.049931128 0.0500811
0.049962677 0.049891271 0.049974084 0.050022185 0.050006665 0.050087284
0.050088152 0.049986999 0.049935807 0.049954891 0.049970012 0.049898878
0.050018579 0.050117891 0.049992628 0.050108492 0.050075009 0.04995352
0.049970262 0.049849689 0.049992561 0.050041314 0.049973417 0.050114948
0.049997643 0.049991015 0.050000932 0.050042115 0.05000224 0.049942531
0.049968708 0.050027926 0.050004527 0.049955938 0.050060388 0.049992841
0.049988758 0.049921643 0.049963839 0.050015774 0.05009548 0.050078448
0.050019972 0.049990892 0.0499212 0.050073132 0.050087456 0.04997424
0.050020728 0.050035331 0.049982358 0.049883392 0.049917348 0.050181698
0.050081369 0.049980052 0.050065082 0.050057724 0.049953073 0.050028723
0.05002024 0.049836166 0.049875163 0.050007466 0.050001279 0.049984753
0.049978491 0.049997143 0.050114579 0.049999218 0.049975283 0.050047245
0.04995203 0.049999643 0.050038125 0.049980227 0.050067682 0.050039049
0.050093196 0.050025079 0.049907193 0.049933016 0.050065089 0.050104
0.050011009 0.050018005 0.049993049 0.049976006 0.049988031 0.049917065
0.049978022 0.050041068 0.049964018 0.049996998 0.049959034 0.049958006
0.050033011 0.050058015 0.050046004 0.050046004 0.050008006 0.049963139
0.049929004 0.050017033 0.049977999 0.049862269 0.049954079 0.049908336
0.05003918 0.05011823 0.049949989 0.049875528 0.049986798 0.050041568
0.049976319 0.049947567 0.049940806 0.050021131 0.050004814 0.049914025
0.04997924 0.050021082 0.049975511 0.04998032 0.049957603 0.049998429
0.049997602 0.050053846 0.050071478 0.049879216 0.049874388 0.049985114
0.050025381 0.050183903 0.050065916 0.049908824 0.049950007 0.049935948
0.050061319 0.049992155 0.049962983 0.050102923 0.049944896 0.0499986
0.050121676 0.049960658 0.049985319 0.049859323 0.049879134 0.050035212
0.050017104 0.050119895 0.049940038 0.049982734 0.050051067 0.050002098
0.050011683 0.050038733 0.050063308 0.049915936 0.049945414 0.049965736
0.050111875 0.049970929 0.049963601 0.049996048 0.049899779 0.050015491
0.05006684 0.050063938 0.050022058 0.050015625 0.049961567 0.049959321
0.050106507 0.050026685 0.050018083 0.050050914 0.049969375 0.049931653
0.049918406 0.050222952 0.050151821 0.0500228 0.050070308 0.050067838
0.049995832 0.049970374 0.049984183 0.049954645 0.049967486 0.049993191
0.049965482 0.049925033 0.049980953 0.049989097 0.050211683 0.050068293
0.049931478 0.050079565 0.049941357 0.049988501 0.050055288 0.049925406
0.050187439 0.050084047 0.050074462 0.050046094 0.049843211 0.049978223
0.050085019 0.05012225 0.050015092 0.050004102 0.049954031 0.049974132
0.050056085 0.049927048 0.050046019 0.050065011 0.049918007 0.050042003
0.049953051 0.049968004 0.05003212 0.050058011 0.049966101 0.049966101
0.050004002 0.049957108 0.049945023 0.050011054 0.049939062 0.049856223
0.049891021 0.049906693 0.050065085 0.049990624 0.049915276 0.049921665
0.049971871 0.049975034 0.049965035 0.049915116 0.04989928 0.04999065
0.04998542 0.049985919 0.049996801 0.050016172 0.049958102 0.049914382
0.049909361 0.050017014 0.050025694 0.049980756 0.050063767 0.049899682
0.049865756 0.050002124 0.050031122 0.050151005 0.050025098 0.049957164
0.05002442 0.049928062 0.050082728 0.049971905 0.049906909 0.050105654
0.049929712 0.049924724 0.050101887 0.049984057 0.049995899 0.049887758
0.049895648 0.050007921 0.049967878 0.050107826 0.049939632 0.049974278
0.05006244 0.049987648 0.049971845 0.0500824 0.050041784 0.049847733
0.049985431 0.049970679 0.050105587 0.050026845 0.049966842 0.050016902
0.049924999 0.049996052 0.050065894 0.050059948 0.04999445 0.050030272
0.050029803 0.049981855 0.050064139 0.050030638 0.050005928 0.050017204
0.050025918 0.049972806 0.049918681 0.050200921 0.050200697 0.050026391
0.050080903 0.050094847 0.050010473 0.049973935 0.049986176 0.050096355
0.050058778 0.050014015 0.050023366 0.049888141 0.049970325 0.050035108
0.050257608 0.050054923 0.049919844 0.050090563 0.049958736 0.050016545
0.050058544 0.049953561 0.05018229 0.050068632 0.050042462 0.050085597
0.049854178 0.050042339 0.050060004 0.050055474 0.050058257 0.05005021
0.049971066 0.049953099 0.050050091 0.049971219 0.05009 0.050039139
0.049955003 0.050080024 0.04992 0.050006054 0.050004072 0.050052091
0.049976017 0.049976017 0.049996 0.049907088 0.049950093 0.049989074
0.049900241 0.049899258 0.049826074 0.049883626 0.050039146 0.049864072
0.049928233 0.049939986 0.049917385 0.049888872 0.049969818 0.049917642
0.049867723 0.050000258 0.049969461 0.04999648 0.049950697 0.049995981
0.049950369 0.04986845 0.049901351 0.049963575 0.050023973 0.049962878
0.049990289 0.049963795 0.049920712 0.049967099 0.050040174 0.050103668
0.049986571 0.05003877 0.050050966 0.049911577 0.050071441 0.049919125
0.049896445 0.050119102 0.049953803 0.049915094 0.050025534 0.049965613
0.050004594 0.049945682 0.049954683 0.050000977 0.049895771 0.050065957
0.049931329 0.049928021 0.050038256 0.049986549 0.049968474 0.050106663
0.049999487 0.049828276 0.049995061 0.049984757 0.050079595 0.050055142
0.050002098 0.049998365 0.04996635 0.049959172 0.05003183 0.050090946
0.050009903 0.050058011 0.050059494 0.050015382 0.05005987 0.050046332
0.049990069 0.049995776 0.050132152 0.050008532 0.049920987 0.050143868
0.050215606 0.050065584 0.050122902 0.050161414 0.050000258 0.049992114
0.050036788 0.050173808 0.050106358 0.050042167 0.050084416 0.049929138
0.049991909 0.050108314 0.050231941 0.050032016 0.049991991 0.050101709
0.049943902 0.050030731 0.050043792 0.050002806 0.050152551 0.050051089
0.050076611 0.05013052 0.049906217 0.050085191 0.050063081 0.049968198
0.050094321 0.050086081 0.050004203 0.049957011 0.050009076 0.050025098
0.050083999 0.050026212 0.049998 0.0500561 0.049919024 0.050055061
0.049995013 0.050031047 0.050018001 0.050018001 0.049961012 0.049861126
0.049948156 0.049953137 0.04985743 0.049929306 0.049796373 0.049875505
0.049980421 0.049764231 0.049921278 0.049905539 0.04985017 0.049818549
0.049993191 0.049927317 0.049828388 0.050018057 0.049962319 0.049967505
0.049866263 0.049959365 0.049928293 0.049839616 0.049900986 0.049907938
0.050004274 0.049964383 0.049934596 0.050014794 0.049972437 0.049912635
0.050060824 0.050072249 0.049951207 0.05005911 0.050047535 0.049904447
0.050050676 0.049927384 0.049903482 0.050094087 0.050002363 0.04994249
0.049942695 0.049931034 0.049996942 0.049998965 0.05000741 0.050001428
0.049805429 0.050019767 0.049945228 0.04987409 0.049989887 0.049986601
0.050016452 0.050091345 0.049977235 0.049872894 0.049958691 0.049960896
0.050036728 0.050072376 0.050046343 0.049963914 0.049993414 0.0499314
0.049991455 0.050108414 0.050049864 0.050106544 0.05007026 0.05002252
0.050076254 0.050079208 0.049996644 0.050017301 0.050202053 0.050046381
0.049962826 0.050113801 0.050223831 0.050127503 0.05015355 0.050206505
0.050033934 0.050008256 0.050085098 0.050196122 0.050119758 0.050086908
0.050124217 0.050040867 0.050068568 0.050168939 0.050169773 0.050056987
0.050097149 0.050110277 0.049947064 0.050039932 0.050035935 0.050004825
0.050135046 0.050058011 0.050148796 0.050179388 0.049956456 0.05008316
0.050074466 0.049954161 0.050115284 0.050086085 0.050030336 0.05000601
0.049988065 0.05005201 0.050053019 0.050015107 0.050011035 0.050036125
0.049946025 0.050082035 0.050012 0.050023004 0.050035998 0.050035998
0.049901024 0.04981821 0.049940191 0.049914315 0.04983354 0.049916372
0.049773946 0.049869597 0.049914178 0.049710512 0.049880564 0.049836237
0.049803972 0.049790893 0.049989216 0.049907476 0.049792059 0.05000902
0.049931809 0.049922265 0.049819309 0.049919125 0.049882691 0.049819004
0.049887192 0.049886934 0.049997319 0.049947958 0.049912214 0.050031755
0.04998897 0.049889985 0.050060224 0.05004352 0.049934834 0.050027769
0.050042447 0.049913276 0.050026141 0.049996104 0.049905546 0.050031748
0.05004207 0.049957868 0.049891505 0.049908414 0.049962148 0.050025277
0.050038781 0.050002735 0.049747903 0.049976017 0.049975362 0.04985442
0.049933448 0.049969677 0.050062783 0.050042789 0.049983971 0.049942445
0.049911313 0.049907647 0.049984831 0.050080221 0.050068103 0.049922626
0.049996674 0.049928118 0.049958661 0.050085042 0.050096955 0.050166585
0.050076261 0.050024077 0.050085083 0.050122604 0.050040729 0.050068017
0.050223984 0.05008148 0.050047413 0.050148074 0.050228979 0.050196856
0.050165303 0.050211135 0.050130598 0.050044775 0.050108798 0.050200731
0.050121687 0.050148349 0.050159607 0.050154071 0.050169259 0.050199851
0.050125908 0.050118428 0.0501807 0.050119121 0.049992539 0.050055187
0.050058246 0.049983732 0.050124321 0.05008984 0.050200921 0.050193522
0.049986981 0.05007235 0.050071936 0.050012365 0.05012932 0.050075222
0.050060377 0.050065082 0.05000712 0.050056007 0.050025094 0.049998041
0.050003145 0.050050087 0.049982045 0.05010201 0.050035 0.050021
0.050039001 0.050039001 0.049835023 0.049775243 0.049908184 0.049867634
0.049833603 0.049860574 0.049742538 0.049839891 0.049838331 0.049712058
0.049833067 0.049760949 0.04978051 0.049799412 0.049935356 0.04986804
0.049777322 0.049966145 0.049873084 0.04987004 0.049816933 0.049873039
0.049828798 0.049805831 0.049861189 0.049897082 0.050005645 0.049916878
0.049897756 0.050022792 0.049969651 0.049901057 0.05003177 0.05000462
0.04993872 0.04999223 0.050027203 0.049929399 0.050011594 0.050063599
0.049920902 0.04997658 0.050043564 0.049935441 0.049873468 0.049905792
0.049918085 0.050015662 0.050040066 0.050000716 0.049766593 0.049947821
0.049986169 0.049870506 0.049904265 0.049932007 0.050053153 0.049981054
0.049994063 0.049983609 0.049878404 0.049874142 0.049946472 0.050065868
0.050045259 0.049882989 0.049985878 0.049944066 0.049931187 0.050043847
0.050142791 0.050206497 0.050070927 0.050040871 0.050102588 0.050171837
0.050103612 0.050124299 0.050232731 0.050120592 0.05014931 0.050224543
0.050234575 0.050270144 0.050182492 0.050201923 0.050255179 0.050112057
0.050139297 0.050211083 0.050139774 0.050221808 0.050203454 0.050224233
0.050243985 0.050205905 0.050120987 0.050181694 0.050226733 0.050131951
0.050063327 0.050081585 0.050109737 0.04999382 0.050114285 0.050118849
0.050210074 0.050167892 0.050001461 0.050088745 0.050072081 0.050082568
0.050155465 0.050076302 0.050086416 0.050095197 0.050046287 0.050063059
0.050023213 0.049982034 0.049993265 0.050080039 0.050017104 0.050124999
0.050060026 0.050021019 0.050037012 0.050037012 0.049786024 0.049731202
0.049839191 0.049810916 0.049835667 0.049779993 0.049708869 0.049783345
0.049759164 0.049741592 0.049787715 0.0497046 0.049757704 0.049809203
0.049856845 0.049839325 0.04977639 0.049893383 0.04981098 0.049815167
0.049821828 0.049819309 0.049789865 0.049796429 0.049830381 0.049909756
0.05001232 0.049891923 0.049871065 0.049988434 0.049938109 0.049931943
0.049992796 0.049960893 0.049952466 0.049969412 0.049993679 0.049950421
0.050014712 0.050079085 0.049956415 0.049958516 0.050009649 0.049888387
0.049880974 0.049926773 0.049890578 0.049982566 0.050007954 0.049986005
0.049834445 0.049942769 0.0499622 0.049889926 0.049922023 0.049892437
0.049992774 0.049913477 0.049965147 0.049979948 0.049863845 0.049880605
0.049930416 0.050025463 0.049983017 0.049850717 0.049972214 0.049962975
0.049912572 0.050014116 0.050172165 0.050207473 0.050048538 0.050079338
0.050154667 0.050226878 0.050166272 0.050170008 0.050258793 0.050174106
0.050239071 0.050299503 0.050251652 0.050337251 0.050225556 0.050225623
0.050353952 0.050201084 0.050207235 0.050237443 0.050192069 0.050294999
0.050259821 0.050260246 0.050267763 0.050204106 0.050144695 0.050226178
0.050249778 0.050159674 0.050139006 0.050122101 0.050169148 0.050046187
0.050112229 0.050124064 0.050192278 0.050142262 0.050010405 0.050129082
0.05010388 0.050126519 0.050192561 0.050088257 0.050093468 0.050103247
0.050070442 0.050080162 0.050046295 0.049977064 0.050005261 0.05010201
0.050050162 0.050144009 0.050084099 0.05003405 0.050031025 0.050031025
0.049760032 0.049684171 0.049744248 0.04975206 0.049814716 0.049696539
0.049680896 0.049718905 0.049690235 0.049758986 0.049739372 0.049679149
0.049725778 0.049792904 0.049785726 0.049829915 0.049769919 0.04979841
0.049770012 0.04976571 0.04981076 0.049773589 0.04977214 0.049781065
0.049798042 0.049895346 0.050005246 0.049882129 0.049830597 0.049933136
0.049911339 0.049957469 0.049959462 0.049935292 0.049961764 0.049947154
0.049950313 0.049975418 0.050023995 0.050040253 0.049992748 0.049968079
0.049978398 0.049849913 0.049899448 0.049959976 0.049891863 0.049957708
0.049957324 0.049946249 0.049894929 0.049951166 0.049912635 0.049879313
0.04996822 0.049869318 0.04991512 0.049841736 0.04988103 0.049948212
0.049862966 0.049898103 0.049922753 0.049966112 0.049905181 0.049830236
0.049959797 0.049973764 0.049910795 0.050002784 0.050165538 0.050187029
0.050032631 0.05013252 0.050231516 0.050282177 0.050227273 0.050206918
0.05030366 0.050246969 0.050307706 0.050351985 0.050288249 0.050390448
0.05029859 0.050305117 0.050408058 0.050298061 0.050311856 0.050280113
0.050272882 0.050356761 0.050318964 0.050296988 0.05025449 0.050216388
0.0501858 0.050255764 0.050268177 0.050201237 0.050210156 0.050170634
0.050218247 0.05011376 0.050126307 0.050117381 0.050176319 0.050155457
0.05002299 0.050172139 0.050167587 0.050142385 0.05022151 0.050099261
0.050088432 0.050104257 0.050075453 0.050105199 0.050068252 0.049992111
0.050042141 0.050113004 0.050080113 0.050144013 0.05010416 0.050067045
0.05002002 0.05002002 0.049740057 0.049631216 0.049644336 0.04970412
0.049762722 0.049622003 0.049654771 0.049662478 0.049637832 0.049738381
0.049686819 0.049675643 0.049696032 0.049739257 0.049727809 0.049823169
0.049751323 0.049697988 0.049744457 0.049720269 0.049780287 0.049753871
0.049765658 0.049756143 0.049770012 0.049852137 0.049984135 0.049877424
0.049788769 0.049874268 0.049890187 0.049962424 0.049932413 0.049946111
0.049962942 0.049911261 0.049913913 0.050001055 0.050023604 0.049977604
0.05000668 0.049973633 0.049989033 0.049850132 0.049916748 0.049983453
0.049905222 0.049961109 0.049918473 0.049887478 0.049915444 0.049952373
0.049853943 0.049837939 0.049998749 0.049867593 0.049845014 0.049768731
0.04976711 0.049909148 0.049868334 0.049897011 0.049904749 0.049888305
0.049832143 0.049817115 0.049941249 0.049973521 0.049925227 0.049996577
0.050125021 0.050171778 0.050048117 0.050189603 0.050297547 0.050326135
0.050293989 0.050250962 0.050351184 0.050331537 0.050365377 0.050387572
0.05034231 0.050430801 0.050394934 0.050429966 0.050440457 0.050391085
0.05042614 0.050340112 0.050366208 0.050405312 0.050369456 0.050357584
0.050242133 0.050259359 0.050247468 0.050278042 0.050285909 0.050248548
0.050271921 0.050217055 0.050255042 0.050167259 0.050154392 0.050127614
0.050176091 0.050197467 0.050047647 0.050205987 0.050240394 0.050146352
0.050223362 0.050111379 0.050089289 0.050103318 0.050086327 0.050138149
0.050076123 0.050021127 0.050091032 0.050118003 0.050100025 0.050123002
0.050115116 0.050116014 0.050007004 0.050007004 0.049705077 0.049578346
0.049554355 0.049667183 0.049697708 0.049553219 0.049621634 0.049618941
0.04959543 0.049681872 0.049635023 0.04966709 0.049679626 0.049665559
0.049667787 0.049793549 0.049731508 0.049616531 0.049709111 0.04967339
0.049737275 0.049758472 0.049760107 0.049722936 0.049754716 0.049803488
0.049952868 0.049859174 0.049761396 0.049836159 0.049870711 0.049945049
0.049906835 0.049984805 0.049963787 0.049871877 0.049890213 0.050018933
0.050012294 0.04992703 0.049996264 0.049958106 0.050039668 0.049892977
0.049923409 0.049977671 0.049908489 0.049982972 0.049911473 0.049836028
0.04990048 0.049935222 0.049795084 0.0497857 0.049981907 0.049873155
0.049783856 0.0497014 0.049663447 0.049866553 0.049867187 0.049869593
0.049865298 0.049791563 0.049770199 0.049809512 0.049908251 0.04996255
0.049946167 0.04998732 0.050077476 0.050172884 0.050095141 0.050240804
0.050324194 0.050356518 0.050371099 0.050316434 0.05040038 0.050419267
0.050425325 0.05042373 0.050408386 0.050468706 0.050501488 0.050563164
0.050486088 0.050473031 0.050521914 0.050418202 0.05045484 0.050452393
0.05041476 0.050440364 0.050265774 0.050335694 0.050329208 0.050301984
0.050300531 0.05029057 0.050326698 0.050265267 0.050288729 0.0502005
0.050194304 0.050166652 0.050188743 0.050235357 0.050086498 0.050230779
0.050292335 0.050154444 0.050208233 0.050128512 0.050097134 0.050101414
0.050123151 0.050179113 0.050075024 0.050049089 0.050136 0.050122004
0.050105002 0.050093003 0.05012003 0.050163001 0.049996 0.049996
0.049637113 0.049534492 0.04948134 0.049629249 0.049633745 0.049487263
0.049577631 0.049581185 0.049549326 0.049605325 0.049590159 0.049633458
0.049664572 0.049596276 0.04960449 0.049722254 0.049707882 0.049563732
0.049653698 0.049623214 0.049687054 0.049762566 0.049749482 0.049692299
0.049749989 0.049768776 0.049915694 0.049825966 0.049756013 0.049825754
0.049859233 0.049920935 0.049873322 0.050015908 0.049971655 0.049857799
0.049880281 0.050025847 0.049994942 0.049904011 0.049973536 0.049925391
0.050102215 0.049962394 0.049925216 0.049946208 0.049896158 0.049995828
0.049923092 0.049814511 0.049872376 0.049901072 0.049740784 0.049744934
0.049917873 0.049852755 0.04972114 0.049647775 0.049594749 0.04981003
0.049842693 0.049825411 0.049809959 0.049688838 0.04972012 0.049800172
0.049853899 0.049942978 0.049961533 0.049978368 0.050054234 0.050186276
0.050150223 0.050278232 0.050315607 0.050384741 0.050450735 0.050403208
0.050459303 0.050500441 0.050492629 0.050478332 0.050488885 0.050519738
0.050603628 0.050675202 0.050558642 0.050542589 0.050585639 0.050516091
0.050536387 0.050511278 0.050468594 0.050528478 0.050334554 0.05043247
0.050420467 0.050333824 0.050314434 0.050323263 0.050374705 0.050324194
0.050323486 0.050226439 0.050243068 0.050220504 0.050210498 0.050249111
0.050134435 0.050245561 0.050308358 0.050179556 0.05020215 0.050154492
0.050104041 0.050102431 0.05017703 0.05021812 0.050082002 0.050066054
0.050171003 0.050127 0.050090011 0.050072037 0.050127 0.050187007
0.049996004 0.049996004 0.049534157 0.049500562 0.049420375 0.049579278
0.049575929 0.049424332 0.049528833 0.049543325 0.049498618 0.049524587
0.049550436 0.049566753 0.049627792 0.049550604 0.049550138 0.04961627
0.049660791 0.049534839 0.049591113 0.049579401 0.049634196 0.049744885
0.049734082 0.049668889 0.049738396 0.049746063 0.049869027 0.04978906
0.049770311 0.049833808 0.049865112 0.049910892 0.049836274 0.050006758
0.049980201 0.049884781 0.049890552 0.050025329 0.049980607 0.049903329
0.049953409 0.049898341 0.050143164 0.050035838 0.049928602 0.049913403
0.049884107 0.049985491 0.04992836 0.049826726 0.049843211 0.049860209
0.049700893 0.049717952 0.049829435 0.049782824 0.049647633 0.049607862
0.049551547 0.049732193 0.049787115 0.049772467 0.049746223 0.049594976
0.049674485 0.049780782 0.049786977 0.049918499 0.049964841 0.049966246
0.050063014 0.05020079 0.050191201 0.050303042 0.05030353 0.050427042
0.050524384 0.050500777 0.050539255 0.050568026 0.050563186 0.05055657
0.050592165 0.050591927 0.050698288 0.050755702 0.050651588 0.050609149
0.050623257 0.050629243 0.050614204 0.050585233 0.050542947 0.050602548
0.0504313 0.050530918 0.05050616 0.050379671 0.0503456 0.050352599
0.050416805 0.050397776 0.050359406 0.050260115 0.050298832 0.050272197
0.050242376 0.050249767 0.050182354 0.050248355 0.050294362 0.050223518
0.050220091 0.050187308 0.050108008 0.050116263 0.050217003 0.050237142
0.050108004 0.050065029 0.050195001 0.050138004 0.05005601 0.050063085
0.050149005 0.050182011 0.050009999 0.050009999 0.049408194 0.049465545
0.049361523 0.049517285 0.049510282 0.049363576 0.049484298 0.049497552
0.049450357 0.049451787 0.049509093 0.049476195 0.049553122 0.049523305
0.049512248 0.049498718 0.049584139 0.049515568 0.049539473 0.049546562
0.049582992 0.049696106 0.049715314 0.049649566 0.049708802 0.049718902
0.049811155 0.049765162 0.049796518 0.049844272 0.049889632 0.04992551
0.049806781 0.049956612 0.049979612 0.049948122 0.049930438 0.050022986
0.049967673 0.049910758 0.049944215 0.049896915 0.0501501 0.050093036
0.049939737 0.049901161 0.049888816 0.049956106 0.049916666 0.049857032
0.049817137 0.049820404 0.049682718 0.04969484 0.049737323 0.04967165
0.049563315 0.049570236 0.049511701 0.04963639 0.049698599 0.049710106
0.049675938 0.049518701 0.049616128 0.049739424 0.049723353 0.049892526
0.049955238 0.04994927 0.050087992 0.050213557 0.050215445 0.050325979
0.050325312 0.050494429 0.050589506 0.050593585 0.050638534 0.050627444
0.050634436 0.050661419 0.050722189 0.050684724 0.050786883 0.050822563
0.050748229 0.05068763 0.050655935 0.050748147 0.050695874 0.050658885
0.050635763 0.050660692 0.050536431 0.050618086 0.050579712 0.050446253
0.050403655 0.050385665 0.0504517 0.050475087 0.050394375 0.05030952
0.050357655 0.050313778 0.050281283 0.050252412 0.050225217 0.050240163
0.050270267 0.05027429 0.050254047 0.050218116 0.05012 0.05014205
0.050222032 0.050227109 0.050150007 0.050050009 0.050209001 0.050154004
0.050011009 0.0500561 0.050189 0.050158005 0.050036009 0.050036009
0.049275182 0.049411502 0.049296737 0.049448326 0.049429718 0.049301937
0.049443003 0.04944304 0.049407516 0.049389265 0.04945723 0.049380146
0.049452454 0.049495991 0.049480144 0.04939479 0.049489412 0.049491316
0.049509153 0.049526677 0.049535263 0.049628217 0.049686253 0.049624592
0.049660537 0.04967688 0.049737945 0.04976042 0.049826231 0.049844556
0.049920022 0.049954072 0.049799945 0.049896695 0.049968604 0.050023612
0.049994335 0.050023437 0.049960587 0.049920741 0.049952898 0.049932659
0.05013366 0.050126541 0.049960464 0.049917068 0.049915008 0.04992706
0.049895279 0.049884982 0.049794175 0.0497812 0.049686622 0.04966554
0.049652815 0.04954993 0.049472198 0.049514402 0.049451578 0.049532492
0.049587198 0.049632799 0.049595468 0.049452025 0.049537718 0.04966832
0.049678963 0.049864896 0.04992846 0.049925104 0.050103579 0.050224796
0.050231878 0.050361454 0.050398558 0.050583418 0.050649978 0.050676495
0.050745077 0.05068998 0.050712585 0.050786402 0.050871395 0.050792266
0.050876174 0.050899912 0.050846368 0.05079056 0.050706867 0.050863694
0.050783463 0.050724391 0.050737739 0.050718129 0.050639339 0.050686862
0.050641336 0.050526343 0.050486151 0.050429657 0.050480105 0.050542265
0.050430175 0.05036981 0.050413489 0.050354332 0.050322153 0.050267123
0.050258078 0.05023003 0.050252102 0.050317064 0.050285012 0.050244011
0.050149001 0.050177012 0.050191056 0.050200015 0.050189007 0.050029002
0.050206006 0.050168999 0.049970001 0.050044041 0.050236005 0.050136
0.050061021 0.050061021 0.049153119 0.049329493 0.049221911 0.049374439
0.04933608 0.049230266 0.049392767 0.049374819 0.049364962 0.049334373
0.049392913 0.049296889 0.049351834 0.049444549 0.049433894 0.049319543
0.04939824 0.049455933 0.049488638 0.049510412 0.049494952 0.049558777
0.049638774 0.04958456 0.049609184 0.049623009 0.04965524 0.049766168
0.049850114 0.049834158 0.049934544 0.049977321 0.049823288 0.049860001
0.049952827 0.050085034 0.050060727 0.050027076 0.04996486 0.049940497
0.049983364 0.05000063 0.050119419 0.050141949 0.049992785 0.049954727
0.049954135 0.049917392 0.04988296 0.049899463 0.049776297 0.049742248
0.049704585 0.049624193 0.049575441 0.049457103 0.049383447 0.049425039
0.049360368 0.049426366 0.049461372 0.049531613 0.049496491 0.049378168
0.04944041 0.049570505 0.049650036 0.049828373 0.049882479 0.049899928
0.050104283 0.050239995 0.050251842 0.050417729 0.050516389 0.050677616
0.050715387 0.050758716 0.050849415 0.050775141 0.050809182 0.050928909
0.051031582 0.050910443 0.050968643 0.051002666 0.050951321 0.050918579
0.050790064 0.050967131 0.050873492 0.050784126 0.050846808 0.050788067
0.050740238 0.050741293 0.050699815 0.050613027 0.050576001 0.050483782
0.050503124 0.050588537 0.0504697 0.050426226 0.050464265 0.050407037
0.050355025 0.050287999 0.050280005 0.050230015 0.050241999 0.050342008
0.050301004 0.050263025 0.050187021 0.050209176 0.050149079 0.050175052
0.05020801 0.050010078 0.050182998 0.050181016 0.049945999 0.050030004
0.050264008 0.05012802 0.050072018 0.050072018 0.049051058 0.049222525
0.049137954 0.049294613 0.04924034 0.049144469 0.049320444 0.04928783
0.049306501 0.049275257 0.049316019 0.049237497 0.049275458 0.049361344
0.049361307 0.049268994 0.049325101 0.049409989 0.049461361 0.049486581
0.049464755 0.04950567 0.049573883 0.049530864 0.049566094 0.049568892
0.049577076 0.049767416 0.049860679 0.049815118 0.0499206 0.049980599
0.049874764 0.049865648 0.049942307 0.050120369 0.05011088 0.050035834
0.049986701 0.049975704 0.050041616 0.05008664 0.050126631 0.050152332
0.050037641 0.050004166 0.049995065 0.049936842 0.049892224 0.04990961
0.049770448 0.049704585 0.049722362 0.04957588 0.049503416 0.049405262
0.049300078 0.049304795 0.049238667 0.049318917 0.049328282 0.049397934
0.049370881 0.049284477 0.049332768 0.049460124 0.049620468 0.049772207
0.049820479 0.04988236 0.050098248 0.050261054 0.050283652 0.050496105
0.050655507 0.050769601 0.050794531 0.050853468 0.050951101 0.050893188
0.050938319 0.051080931 0.051188041 0.051039033 0.051068138 0.051130574
0.051074687 0.051061664 0.05091041 0.051061045 0.05096643 0.050858404
0.050963342 0.050875828 0.05083989 0.050791722 0.050760813 0.050696786
0.050654717 0.050542179 0.050523259 0.05061407 0.05050917 0.050471
0.050503042 0.050472066 0.050378028 0.050306171 0.05029206 0.050243244
0.050234117 0.050349183 0.050308116 0.050274219 0.050225154 0.050222453
0.050124146 0.050151385 0.050199036 0.049994249 0.050152007 0.0501801
0.049945999 0.05002217 0.050252002 0.050126042 0.050061006 0.050061006
0.048971035 0.049100567 0.049045954 0.049202826 0.049150638 0.049048681
0.049218047 0.049179021 0.049222089 0.049205612 0.049231358 0.049192738
0.049225774 0.049252056 0.049263287 0.049226198 0.049265232 0.049351156
0.049413636 0.049443513 0.049443882 0.049470637 0.04950045 0.049476836
0.049538586 0.049527198 0.049521863 0.04975009 0.049848355 0.049794335
0.04988661 0.049965333 0.04993777 0.04990878 0.049940001 0.050131958
0.050139073 0.050051805 0.050030895 0.050034836 0.050125714 0.050176557
0.050164353 0.050175022 0.050097995 0.050064597 0.050033331 0.049981162
0.049925022 0.049926572 0.049781561 0.04967444 0.049728688 0.049530569
0.049438223 0.04938022 0.0492181 0.04916887 0.04909578 0.04919906
0.049185716 0.049226362 0.049214952 0.049162921 0.049219366 0.049349889
0.049568295 0.049690355 0.049751252 0.049876869 0.05010194 0.050288547
0.05032827 0.050585236 0.050790444 0.050860487 0.050897658 0.050973818
0.051062647 0.051044494 0.051100623 0.051237766 0.051336084 0.0511868
0.051181834 0.051277373 0.051217962 0.051208921 0.051065207 0.051155917
0.051067393 0.050964579 0.051086985 0.050978847 0.050940078 0.050853524
0.050828334 0.050774068 0.05071602 0.05059601 0.050545018 0.050624076
0.050546024 0.050500263 0.050538067 0.050533518 0.050399348 0.050314754
0.050301403 0.050263878 0.050219569 0.050345678 0.050313506 0.050281703
0.050249558 0.050210882 0.050124355 0.050122965 0.050165147 0.049982507
0.050122101 0.050161257 0.049971022 0.050019491 0.050195016 0.050114051
0.050030999 0.050030999 0.048905049 0.048975635 0.048948046 0.049093064
0.04906315 0.048949156 0.049089853 0.049050462 0.049115781 0.049126044
0.04913573 0.049143218 0.049185202 0.049128227 0.049154013 0.049180362
0.049207792 0.04928292 0.049345329 0.049377915 0.04942283 0.049446978
0.04942967 0.049438484 0.049521875 0.049502525 0.049494401 0.049708869
0.049808513 0.049774814 0.049849048 0.049945708 0.049996916 0.049969632
0.049948219 0.050130107 0.050158024 0.050083153 0.050095104 0.050115392
0.050230734 0.050262358 0.050233115 0.050221484 0.050176635 0.050141513
0.050076425 0.050044175 0.049978886 0.049958311 0.049812518 0.049662169
0.049719412 0.049499042 0.049382906 0.049351886 0.049131703 0.049037948
0.048942409 0.049055729 0.049027517 0.049022052 0.049034767 0.04901151
0.049097285 0.049244855 0.04948464 0.049586937 0.049685705 0.049880899
0.050123699 0.050324894 0.050391812 0.050676551 0.050910417 0.050962038