# vtk DataFile Version 3.0
axinsert(project(???,0,L2),2)
ASCII
DATASET STRUCTURED_POINTS
DIMENSIONS 256 1 1
ORIGIN 0 0 0
SPACING 1 1 1
POINT_DATA 256
SCALARS nrrd23919 float
LOOKUP_TABLE default
0 0 0 0 0 0 0 0 0 0 0 0 0 0 0 0 0 0 0 0 0 0 0 0 0 0 0 0 0 2.4494898e-06
1.9261361e-05 0.00013481098 0.00094935874 0.0063164267 0.038988411
0.21534692 0.97580922 2.2958465 1.4384904 1.5396076 1.3576072 0.94449329
1.161676 1.5663333 1.822917 1.7566837 1.523216 1.8028923 1.7573626
1.6503541 2.0468144 2.4805355 2.0965097 1.6229818 1.2937374 1.1042347
1.0004393 0.93937093 0.89900798 0.86953193 0.84611267 0.82648069 0.80897123
0.79330045 0.77879924 0.76531565 0.75268763 0.74082452 0.72965324
0.71910495 0.70911723 0.69965363 0.69068587 0.68219262 0.67415231
0.66656768 0.6593225 0.65243322 0.64577669 0.63929212 0.63297135 0.62688392
0.62127435 0.61622208 0.61170357 0.60770726 0.60409176 0.60037619
0.59594727 0.59080482 0.58458263 0.57711387 0.56950498 0.56321907 0.5576328
0.55439746 0.55399489 0.55597872 0.55874181 0.56209874 0.56363755
0.56061774 0.5572207 0.55264986 0.55434239 0.55553198 0.55152178 0.53876531
0.52108681 0.50029516 0.48182049 0.46408412 0.46391487 0.47263113
0.47862327 0.48096573 0.47730124 0.46832862 0.46289489 0.47239116
0.50218999 0.5342809 0.5627054 0.6328215 0.72954977 0.79329789 0.81639522
0.77128959 0.77128959 0.75069135 0.72135025 0.60446972 0.41047436
0.30847654 0.35239756 0.40362459 0.42828706 0.42116466 0.38824186
0.34540251 0.30724558 0.27993634 0.262256 0.25640175 0.25580335 0.26333931
0.27851108 0.30204526 0.33333737 0.36917275 0.40306923 0.4289898 0.44670537
0.4569234 0.46184909 0.46278161 0.46127731 0.4582493 0.45508355 0.45282134
0.45105115 0.44932863 0.44732729 0.44610533 0.4483718 0.4570117 0.47967702
0.51535809 0.55679464 0.59747154 0.63684374 0.67539793 0.71293479
0.74868989 0.78147608 0.8089155 0.82918936 0.84460294 0.85179257 0.84879529
0.83632958 0.81671578 0.79309607 0.76826417 0.74349749 0.71880239
0.69287759 0.66423148 0.63186377 0.59558737 0.55452442 0.50832444
0.45810404 0.40515441 0.35133526 0.29853377 0.24593632 0.18248506
0.10260689 0.034051303 0.004390927 0.00042896852 3.6728736e-05
2.8284271e-06 0 0 0 0 0 0 0 0 0 0 0 0 0 0 0 0 0 0 0 0 0 0 0 0 0 0 0 0 0 0 0
0 0 0 0 0 0 0 0 0 0 0 0 0 0 0 0 0 0 0 0 0
