# vtk DataFile Version 3.0
axinsert(project(permute(???,2,0,1),0,L2),2)
ASCII
DATASET STRUCTURED_POINTS
DIMENSIONS 128 256 1
ORIGIN 0 0 0
SPACING 1 1 1
POINT_DATA 32768
SCALARS nrrd52223 float
LOOKUP_TABLE default
0.049861383 0.050150145 0.05007622 0.050201781 0.050176069 0.049801115
0.050032329 0.05006101 0.050050952 0.049920432 0.049995158 0.050025642
0.049861941 0.050097924 0.05007847 0.050059702 0.050205894 0.05027312
0.050272617 0.050131742 0.049886793 0.04972142 0.050000783 0.050149068
0.049838662 0.049893472 0.050239738 0.050196577 0.049936961 0.050257176
0.050374113 0.049977474 0.049928773 0.04990986 0.050008893 0.049876023
0.050055664 0.050287087 0.050131936 0.049992628 0.050091095 0.050031636
0.04986487 0.049974557 0.050210349 0.050223008 0.049860604 0.049722072
0.049935229 0.050093066 0.049985707 0.049788088 0.050024193 0.050222125
0.050032046 0.050045032 0.050156996 0.049724001 0.049691003 0.049866058
0.050063428 0.04988683 0.049863189 0.049970102 0.049975853 0.0498579
0.049749065 0.05001498 0.050214037 0.050142385 0.049958568 0.050127722
0.05023114 0.049878776 0.049646109 0.049851712 0.050025556 0.050047591
0.049877975 0.049998127 0.050013989 0.050020516 0.050092082 0.049893621
0.050031129 0.050176375 0.050215516 0.050182547 0.049885526 0.049937345
0.050020102 0.050257381 0.0499405 0.049590189 0.049893018 0.050037835
0.050016921 0.050192073 0.050237887 0.05039807 0.050104003 0.049730681
0.049888074 0.050171006 0.050260112 0.050093815 0.049996059 0.049939271
0.050101619 0.050204549 0.049970452 0.050029077 0.050301924 0.050225936
0.049838588 0.049741607 0.050031625 0.049955904 0.049977794 0.05018574
0.050075002 0.050140917 0.050289094 0.050184544 0.049987182 0.049786251
0.049812429 0.049812429 0.04976052 0.050195131 0.050242484 0.05033505
0.050412223 0.049912389 0.049779397 0.050000008 0.05012279 0.049952153
0.050062519 0.050091743 0.049913857 0.050095391 0.050443009 0.050485041
0.050322786 0.050295051 0.050184481 0.049918771 0.049800012 0.049874235
0.050071705 0.05005084 0.049779877 0.049921818 0.050273065 0.050234657
0.050199613 0.0505348 0.050280906 0.049794905 0.049748953 0.050087988
0.050030485 0.049712081 0.050060406 0.050313506 0.049926039 0.049900193
0.050124042 0.050168216 0.050160844 0.049957197 0.049929474 0.049975228
0.049696293 0.049682975 0.049935419 0.050176624 0.049867012 0.049895484
0.050180849 0.050095204 0.049911603 0.049990069 0.04984374 0.049303237
0.049550753 0.04982521 0.050065424 0.049775317 0.049522009 0.049776159
0.049726859 0.049490225 0.049539462 0.050048284 0.050278492 0.050136641
0.049993057 0.050262 0.050275408 0.049733117 0.049369652 0.049634781
0.050010711 0.050041817 0.049716793 0.049675681 0.049922809 0.049920838
0.049954802 0.049762338 0.04997433 0.050466184 0.050326377 0.05007644
0.049991883 0.050219815 0.050122224 0.050140884 0.050004601 0.049592473
0.050023463 0.05011915 0.049867291 0.049916927 0.050184958 0.050467793
0.050426383 0.049884222 0.049982969 0.050336573 0.050354358 0.050023004
0.049821749 0.049981315 0.050152715 0.050387286 0.05027841 0.050183017
0.050463304 0.05029342 0.049906656 0.049842067 0.050018258 0.049796578
0.049861159 0.050176553 0.050037324 0.050228652 0.05037025 0.050269749
0.050198808 0.049827375 0.049768001 0.049768001 0.049862985 0.049803954
0.050269064 0.050344486 0.050311249 0.050290141 0.049896959 0.050031379
0.050130386 0.049994886 0.050142616 0.050344802 0.050167102 0.050027896
0.050428297 0.050495092 0.050338719 0.050254479 0.049970869 0.049677547
0.049926274 0.050315 0.050251197 0.050010901 0.050077088 0.0500452
0.05005648 0.05028953 0.050255023 0.050260074 0.050173502 0.049867999
0.049788482 0.050106712 0.050175551 0.049965452 0.050126597 0.050083432
0.049970973 0.050094407 0.05013201 0.050244618 0.05005677 0.049779005
0.049673587 0.049880911 0.05008674 0.049866732 0.049993139 0.050195105
0.049917959 0.050089188 0.049978711 0.049690351 0.04965096 0.04969915
0.049508192 0.049433496 0.049578533 0.049657188 0.049731255 0.049573366
0.04949715 0.0495902 0.049588203 0.049421038 0.049524628 0.050047934
0.050121758 0.049909353 0.049758334 0.050060384 0.050134096 0.049645144
0.049568992 0.049800061 0.050031334 0.049846556 0.049708489 0.049557734
0.049696229 0.049740054 0.049804073 0.050058026 0.049971152 0.050014116
0.05016217 0.049984261 0.050068457 0.050210059 0.050237715 0.050099913
0.049897928 0.049950819 0.050277755 0.050070401 0.049893208 0.050046511
0.050227381 0.050207175 0.050191261 0.050241463 0.050268043 0.050465047
0.05019933 0.049973127 0.049957715 0.049972232 0.050133567 0.05024014
0.050293721 0.050511412 0.050329369 0.050046735 0.050383594 0.050578125
0.050233699 0.049850006 0.049705286 0.049859453 0.0500191 0.050150048
0.049979061 0.05008509 0.050397061 0.050257001 0.050079759 0.050079759
0.050194647 0.049714927 0.050077677 0.050494242 0.050212529 0.050325196
0.050501201 0.050211973 0.049867354 0.04991987 0.050280254 0.050326493
0.050215013 0.050334346 0.050348397 0.050338242 0.050245218 0.050120145
0.050035521 0.050062716 0.050020449 0.050072804 0.050362498 0.050320223
0.0502063 0.049986433 0.050132394 0.050287969 0.05006491 0.049989294
0.050131939 0.050122097 0.049969945 0.050116319 0.050205655 0.050237678
0.050281592 0.050205551 0.049938574 0.04984466 0.049885284 0.049765006
0.049757496 0.050071307 0.050219122 0.050073728 0.050014436 0.049833212
0.049924877 0.049953427 0.050138291 0.050033446 0.049705368 0.049196143
0.049204465 0.049612008 0.049513213 0.049426038 0.04954502 0.049686734
0.049355444 0.049496274 0.049638238 0.049185641 0.049404383 0.049549568
0.049687732 0.049949862 0.049801096 0.049523074 0.049543004 0.049744051
0.049683589 0.049423177 0.049723834 0.049891211 0.049882516 0.049782947
0.049689095 0.049885355 0.049888615 0.049870595 0.049731132 0.049961545
0.050027426 0.050119843 0.050328251 0.050075002 0.04993974 0.049932614
0.050110839 0.050126709 0.049987029 0.049907211 0.050113287 0.050083708
0.050127335 0.050332975 0.050377682 0.050316297 0.050132532 0.050216362
0.050170012 0.050123286 0.05017383 0.049961045 0.05010464 0.050160624
0.050179243 0.050294291 0.05019879 0.050385278 0.050240245 0.050091632
0.050538633 0.050711636 0.050360091 0.050127037 0.050115354 0.050010979
0.050121207 0.050105095 0.04983918 0.050023779 0.050250955 0.050391082
0.050333012 0.050333012 0.050252054 0.050333977 0.050201871 0.050386667
0.050541017 0.050268549 0.05041058 0.050315224 0.050027397 0.049994104
0.050288107 0.050266229 0.050066896 0.050325718 0.050467342 0.050340496
0.049975164 0.04986142 0.050313208 0.050503656 0.050201319 0.050097682
0.050268169 0.050218992 0.050161306 0.050263621 0.050251201 0.05030692
0.050360393 0.04991122 0.049970191 0.050154503 0.050222937 0.050229255
0.050008908 0.050170053 0.050306965 0.050088469 0.049775377 0.049697112
0.049676418 0.049932167 0.050211091 0.05047084 0.050284926 0.049775805
0.049842011 0.050031163 0.049868464 0.049455676 0.049650516 0.050051764
0.049868841 0.049378481 0.049341593 0.049454652 0.049445014 0.04927038
0.049333151 0.04950016 0.049315415 0.0494994 0.049463004 0.049171392
0.049129881 0.049281377 0.049738374 0.04965651 0.049589138 0.04943642
0.049349144 0.049304839 0.049390152 0.049577326 0.049720127 0.04948274
0.049445931 0.049907811 0.049818035 0.049886182 0.05016952 0.050067112
0.049801141 0.049687777 0.049961641 0.050233953 0.050438967 0.050156407
0.050113712 0.05034351 0.050127115 0.049710106 0.049891129 0.049998123
0.049999047 0.050497394 0.050365433 0.050146103 0.050241806 0.050219584
0.050283536 0.0502217 0.050274871 0.050131842 0.050107364 0.050064351
0.05006649 0.050187528 0.050202526 0.050324097 0.050371561 0.050268017
0.050353833 0.050269056 0.050312333 0.050499752 0.050253704 0.050162446
0.050433956 0.050335251 0.050177418 0.050276853 0.050320711 0.0500848
0.049961027 0.050322998 0.050491881 0.050491881 0.050324 0.05057637
0.050213855 0.050233848 0.050744396 0.050495829 0.050348029 0.050372936
0.050270796 0.050132245 0.050164901 0.050154414 0.050006121 0.050150152
0.05045037 0.050382368 0.050241444 0.050424766 0.05040196 0.050171439
0.050227389 0.050392244 0.050113078 0.050034542 0.050330989 0.050581437
0.050467778 0.050135136 0.050231215 0.050172597 0.049948975 0.050027788
0.050300565 0.050228845 0.05006827 0.0501124 0.05008566 0.049863711
0.0500497 0.050069872 0.04999467 0.050341036 0.050304666 0.050203677
0.049815867 0.049717348 0.049809508 0.049927171 0.049791489 0.049476039
0.049424458 0.049713012 0.049787268 0.049746808 0.049429197 0.049195535
0.049116317 0.049074993 0.048950769 0.049127273 0.049455289 0.049241334
0.049288273 0.049419556 0.049295522 0.049315285 0.049209349 0.049028404
0.049377993 0.049592562 0.049225066 0.048938867 0.049066108 0.049680162
0.049832895 0.049465384 0.049250253 0.049648795 0.049893901 0.049688429
0.049862605 0.050168108 0.049943954 0.049584046 0.049996492 0.050194249
0.050056286 0.050343264 0.050490186 0.050540518 0.050163638 0.049881097
0.050118875 0.049993962 0.049978059 0.050498605 0.050462451 0.050034977
0.050277323 0.050034601 0.050054614 0.050225466 0.050367977 0.050376397
0.050148722 0.050349403 0.050307058 0.050247502 0.050271664 0.050248545
0.050201654 0.050199188 0.050734945 0.050541159 0.050398037 0.050709024
0.05050705 0.05016192 0.050164077 0.050398901 0.05019182 0.050165955
0.050536718 0.050252065 0.050006103 0.050241407 0.05049492 0.05049492
0.050563011 0.050528463 0.050526034 0.050561238 0.050451033 0.050594471
0.050581343 0.050331518 0.050181292 0.05022781 0.050077852 0.050150231
0.050310429 0.050403427 0.050417621 0.050456733 0.050629355 0.050446074
0.050209027 0.050182618 0.05024318 0.050255548 0.050254423 0.050224967
0.050202575 0.050333984 0.050470792 0.050087437 0.050200913 0.050530478
0.050248571 0.050226416 0.050261185 0.05012707 0.050194696 0.050209031
0.050020009 0.049953785 0.050256252 0.050215147 0.050243661 0.050215989
0.050117634 0.049742237 0.049639843 0.049629986 0.04966614 0.049798388
0.049895514 0.049629338 0.049526781 0.049422029 0.049389429 0.049464554
0.04933608 0.049084164 0.048956547 0.049093504 0.048970144 0.048957612
0.049294937 0.049213581 0.049095552 0.049173005 0.049320858 0.04933193
0.049037702 0.048921321 0.049069341 0.049247611 0.049102768 0.049022008
0.049216624 0.049427055 0.049421437 0.049503997 0.049379129 0.049365304
0.049682599 0.049757782 0.049717389 0.049928054 0.049843635 0.049688112
0.05006548 0.050343435 0.050126109 0.050104424 0.050235927 0.050172202
0.050265986 0.05010049 0.050301351 0.050361831 0.050303388 0.050256521
0.050540116 0.050338939 0.0500645 0.050217994 0.05017611 0.050164901
0.050207295 0.050144468 0.050180145 0.050293777 0.050400753 0.05050002
0.050542016 0.0503361 0.050406888 0.050322462 0.050570633 0.050874736
0.05065814 0.050436698 0.050619293 0.050387822 0.050360754 0.050575987
0.050408978 0.050123133 0.050160259 0.050307326 0.050310999 0.050266601
0.050326716 0.050326716 0.050321426 0.050554484 0.050926998 0.050956506
0.050413955 0.050418753 0.050575193 0.050451364 0.050404161 0.050267491
0.050136995 0.050178725 0.050550278 0.05062189 0.050209042 0.050380614
0.050757542 0.050517667 0.05024514 0.050351746 0.050340474 0.050191652
0.050220378 0.05032501 0.050159615 0.050043423 0.050233465 0.050408576
0.050357979 0.050546348 0.050640889 0.050505601 0.050312765 0.050097715
0.05026025 0.050326064 0.050116643 0.050056536 0.049966007 0.050003134
0.05006187 0.050099138 0.049948867 0.049829517 0.049829178 0.049722251
0.049574949 0.049993552 0.049931373 0.049347326 0.049346283 0.049219415
0.0492201 0.049391408 0.049289547 0.048838381 0.049086619 0.049308244
0.048903041 0.048698384 0.048891928 0.049029063 0.048837081 0.048751898
0.049050268 0.049149059 0.049158059 0.048984725 0.048724845 0.048891336
0.049030423 0.049373351 0.04960338 0.049303733 0.049113818 0.049399395
0.049370781 0.049288247 0.049646936 0.049825735 0.049675159 0.049550667
0.049870353 0.050244816 0.05002635 0.049898047 0.049873408 0.049880013
0.049966067 0.049887944 0.050197151 0.050182506 0.050224256 0.050581865
0.050628435 0.050326131 0.050098881 0.050397694 0.050290819 0.050314177
0.050493505 0.0502951 0.050097503 0.050116654 0.050223272 0.050460037
0.050536446 0.050284028 0.05046409 0.050542004 0.050645079 0.05061923
0.050322007 0.05059566 0.050608691 0.050284307 0.050586041 0.050676666
0.05051063 0.050553165 0.050668642 0.050470654 0.050125651 0.050213102
0.050593536 0.05044663 0.049894486 0.049894486 0.050518148 0.050736513
0.050621647 0.050453175 0.050560132 0.050721597 0.050539505 0.050357606
0.050487183 0.050483543 0.050258536 0.050219093 0.05067059 0.050630692
0.050472692 0.050422918 0.050610531 0.050447974 0.050166849 0.050298166
0.05042785 0.050377589 0.050354142 0.050323747 0.050307285 0.050248656
0.050246008 0.050385308 0.050401147 0.050561108 0.05072993 0.050589785
0.050624184 0.050524838 0.050359722 0.050069179 0.049844675 0.049850367
0.050004821 0.050169423 0.050326757 0.049916252 0.049686402 0.049906373
0.04988965 0.049756572 0.049649488 0.049719632 0.049515188 0.049479984
0.049390934 0.049081594 0.049102161 0.049109519 0.049149662 0.048940916
0.049021721 0.049209017 0.049050771 0.048748039 0.048666134 0.048555277
0.048348408 0.048524156 0.048783131 0.049148217 0.048975032 0.048780687
0.048636802 0.04885846 0.049202025 0.049163442 0.049204264 0.049333639
0.049284235 0.049565785 0.049553864 0.049385246 0.049643561 0.049862362
0.04952962 0.049316552 0.05004555 0.050424647 0.049865257 0.049802165
0.049957033 0.049882386 0.04996625 0.049849298 0.050074667 0.050394487
0.050573811 0.050701719 0.050388083 0.050183594 0.050162744 0.050338048
0.050518982 0.050253358 0.050354324 0.050611172 0.050367229 0.050318696
0.05037934 0.050433356 0.050558973 0.05037475 0.050474919 0.050531473
0.050647248 0.050671279 0.050328091 0.050404381 0.050652117 0.050556339
0.050577 0.050620485 0.050432004 0.050613236 0.05082221 0.050664589
0.050406627 0.050351433 0.050336234 0.050319809 0.049985047 0.049985047
0.050716471 0.050621368 0.050316662 0.050115179 0.050424155 0.050786193
0.050539445 0.050330196 0.050579149 0.050499346 0.050350249 0.050702285
0.050905839 0.050578997 0.050595518 0.050622027 0.05044907 0.050345033
0.05033911 0.050435029 0.050428949 0.050451815 0.050508909 0.050280299
0.050314929 0.05043054 0.05039151 0.050533313 0.050572488 0.050539207
0.050482977 0.050717641 0.050866202 0.050720576 0.050177269 0.049994357
0.049951497 0.050166674 0.050207496 0.050348919 0.050066236 0.049833432
0.049686652 0.049451966 0.049529452 0.049912814 0.050018456 0.049592026
0.049423262 0.049557783 0.049171809 0.04910389 0.049098272 0.048905015
0.048995819 0.048974857 0.048828103 0.04865532 0.048883609 0.048812184
0.048636708 0.048332758 0.04825956 0.048644949 0.04857396 0.048688203
0.04871925 0.048680112 0.04876345 0.048874181 0.04895471 0.048600815
0.048791129 0.049207885 0.049076047 0.049254902 0.049727272 0.049520534
0.049386226 0.049631525 0.049650412 0.049706947 0.049796529 0.050048091
0.049987316 0.049832523 0.050152503 0.050133392 0.049991425 0.050035167
0.050194517 0.050570197 0.050680928 0.050699752 0.05016255 0.050056115
0.050490223 0.050344802 0.050204318 0.050428122 0.050405942 0.050559778
0.050835811 0.050597128 0.050387047 0.050223671 0.050342891 0.050709605
0.05061483 0.05045354 0.050523106 0.050489001 0.050484292 0.050734844
0.05071342 0.050675079 0.050568022 0.050543007 0.050396144 0.050581653
0.050664388 0.05057203 0.050716564 0.05066001 0.050385762 0.050301738
0.050408997 0.050408997 0.050386 0.050310358 0.05039525 0.050410874
0.050500587 0.050346736 0.050434206 0.050773989 0.050712619 0.050548855
0.050761349 0.050879687 0.050662272 0.050456941 0.05068969 0.050818376
0.050470684 0.050569523 0.050663039 0.050479159 0.050582882 0.050540891
0.050447665 0.050259609 0.050318725 0.050450336 0.050573543 0.050508182
0.050717052 0.050309952 0.050323989 0.050679684 0.050666876 0.050567746
0.050333854 0.050501548 0.050601367 0.050291371 0.0502587 0.049879011
0.049666952 0.049869109 0.0496521 0.049367409 0.049536247 0.050047901
0.050185326 0.049823005 0.049229808 0.049142245 0.049055699 0.049204636
0.048912555 0.048544105 0.048577551 0.048700459 0.048638009 0.04841733
0.048759993 0.04887028 0.048379403 0.048324503 0.048509225 0.048501458
0.048500527 0.048220012 0.048239037 0.048572935 0.048772641 0.048975646
0.048712566 0.048688076 0.048781481 0.048878968 0.049157046 0.049255196
0.049367595 0.049291447 0.049176335 0.049491514 0.049631145 0.04995396
0.049831778 0.049799278 0.05005388 0.049918208 0.050019003 0.050123632
0.050219934 0.050191037 0.050141845 0.050466962 0.05053414 0.050657842
0.050648183 0.050410066 0.050125092 0.050022572 0.050370242 0.050539367
0.050643355 0.05063073 0.050690003 0.05067002 0.050366644 0.050491549
0.050862018 0.050714239 0.050424483 0.050496206 0.050381523 0.050306771
0.050584808 0.050710682 0.050626609 0.050654586 0.050657239 0.050537866
0.050437063 0.050412975 0.050512042 0.050595984 0.050682038 0.050757796
0.050825786 0.050525494 0.050559144 0.050559144 0.05059088 0.050345276
0.05032412 0.050313663 0.050512526 0.050486106 0.050504439 0.050914317
0.05070702 0.05081749 0.051129322 0.050755847 0.050384238 0.050568361
0.050810304 0.050740238 0.050578423 0.050640564 0.050737884 0.050618585
0.05058001 0.050612137 0.050361972 0.050392017 0.050647523 0.050556447
0.050470814 0.050500661 0.050651629 0.05051424 0.050476823 0.050352935
0.050287046 0.050510041 0.050818149 0.050902601 0.050680276 0.050509766
0.050057061 0.04973869 0.049695875 0.049409956 0.049524121 0.049831707
0.050000392 0.049922962 0.049816422 0.049568854 0.049136728 0.048924949
0.049063887 0.049231254 0.048680581 0.048257608 0.048533823 0.048731178
0.048408832 0.048184201 0.048730597 0.048769377 0.048036482 0.048011065
0.04829593 0.048418988 0.048411045 0.048039518 0.048144095 0.04842037
0.048486862 0.048599087 0.048844852 0.048793249 0.048546422 0.048659913
0.049100015 0.049114339 0.049167726 0.04953257 0.04927602 0.049552873
0.049814824 0.049735688 0.049871817 0.049924769 0.050074097 0.049930956
0.050086036 0.050243024 0.05042664 0.050412375 0.050254654 0.050187565
0.050369762 0.050570387 0.0507572 0.050445836 0.050163087 0.050428171
0.050606005 0.050461415 0.050544083 0.050700754 0.050541006 0.050501563
0.050707236 0.05080422 0.050816029 0.05082038 0.050560553 0.050518554
0.050569773 0.050524268 0.050613873 0.050450675 0.050393261 0.050554093
0.050614078 0.050834984 0.050796032 0.05047901 0.050544444 0.050802171
0.050756875 0.050772265 0.050745964 0.05057833 0.050578583 0.050578583
0.050848 0.050525479 0.050433099 0.0503993 0.050536308 0.050682005
0.050574828 0.050613642 0.050877865 0.051109061 0.050985709 0.050667934
0.050668877 0.050902225 0.050559714 0.050294798 0.050666071 0.050813053
0.050833233 0.050903235 0.050652586 0.050363567 0.050333068 0.050785858
0.050767969 0.050604831 0.05074076 0.050710049 0.050610747 0.050560303
0.050434541 0.050366689 0.050482102 0.050605025 0.05088805 0.050558504
0.050395247 0.050487414 0.050294008 0.049836606 0.049568463 0.049739107
0.049852356 0.049806632 0.049754761 0.049744546 0.049636759 0.049522582
0.049402479 0.048908338 0.048978571 0.049010541 0.048552427 0.048408177
0.048193287 0.048526138 0.048461694 0.048267987 0.048453379 0.04813518
0.047936555 0.047927286 0.048127022 0.048192773 0.048078235 0.048081942
0.048259057 0.048389476 0.048218329 0.048159335 0.048591979 0.048728865
0.048503648 0.048630744 0.04873322 0.048920155 0.049176481 0.049624726
0.049472917 0.049284108 0.049538743 0.049673092 0.049931742 0.050049823
0.050173193 0.050048076 0.049964041 0.050032314 0.050105799 0.050529305
0.050798692 0.050503839 0.050195131 0.050308533 0.050359692 0.050588667
0.050891001 0.050923042 0.050599623 0.050422978 0.050634254 0.050507352
0.050656691 0.050763469 0.050837114 0.050673693 0.050223395 0.050505023
0.050793976 0.05066159 0.050887175 0.050771948 0.050577633 0.050497182
0.050315041 0.050515201 0.050759688 0.050880596 0.050993118 0.05065801
0.050607596 0.05074878 0.05075343 0.050828207 0.050651025 0.050682858
0.050917137 0.050917137 0.050710145 0.050940417 0.050841402 0.050624758
0.05060786 0.05066013 0.050447468 0.050507236 0.050946064 0.051098455
0.050961714 0.050774712 0.050836191 0.050950054 0.050675318 0.05039075
0.050524529 0.050764047 0.050958369 0.050995193 0.050793245 0.050398037
0.050495524 0.050855789 0.050837677 0.051088404 0.050909661 0.05071646
0.050566811 0.050431717 0.050556414 0.050732352 0.050599985 0.050832454
0.050634269 0.050255436 0.050354268 0.050498128 0.050375693 0.050145283
0.04989507 0.05002686 0.0499711 0.049535397 0.049265373 0.049546216
0.049700335 0.049716562 0.049431231 0.049091645 0.048921626 0.048475619
0.048402693 0.048263755 0.048015971 0.048219886 0.048404258 0.048620123
0.048028115 0.047511108 0.047801141 0.048065338 0.048128065 0.047870815
0.04762416 0.048003223 0.047905076 0.047802266 0.04800361 0.048233837
0.048296724 0.048367757 0.048532855 0.048581224 0.048582979 0.049095359
0.049226806 0.049486823 0.049714498 0.049356338 0.049335565 0.049693085
0.050064184 0.050158851 0.050157435 0.050309435 0.050240993 0.049960013
0.049807034 0.050334517 0.050689489 0.050654367 0.050265141 0.050016437
0.050359774 0.050750658 0.050983898 0.050847236 0.050713692 0.050761446
0.050670739 0.050775651 0.050850358 0.051059444 0.050808299 0.050544865
0.050399005 0.050506074 0.050787449 0.050720442 0.050750017 0.050825853
0.050626904 0.050569534 0.050613627 0.050632998 0.050903022 0.050711192
0.050652515 0.050724328 0.05066514 0.050829213 0.050696027 0.050795
0.050739616 0.050716728 0.051247515 0.051247515 0.050688513 0.050890137
0.050982453 0.050726317 0.050642669 0.050710153 0.050647274 0.05076202
0.050806481 0.050965205 0.05109727 0.051111188 0.050918397 0.050646111
0.050804246 0.050867051 0.050672892 0.050591353 0.050684445 0.050684955
0.050797276 0.050948251 0.050965566 0.050837591 0.051027078 0.051122084
0.0508436 0.050603196 0.050393514 0.050639033 0.05093893 0.050649464
0.050681666 0.050723538 0.050438777 0.050496511 0.050559681 0.050049916
0.050177544 0.050641175 0.050338332 0.049808081 0.049610894 0.049557623
0.049632154 0.04967593 0.049680412 0.049478423 0.049142979 0.049158655
0.04844128 0.048331521 0.048588697 0.048479848 0.048378464 0.048006251
0.047884453 0.047999278 0.047622323 0.047662694 0.0479201 0.047818467
0.047713615 0.04758298 0.047567565 0.04755614 0.047543425 0.047579382
0.047708549 0.048043948 0.048005879 0.048017625 0.04843327 0.048591118
0.048598416 0.04891124 0.048970476 0.049020082 0.04953086 0.049601492
0.049483832 0.049568187 0.049967103 0.05038375 0.050376162 0.050442882
0.050468531 0.050423745 0.050366096 0.050378997 0.050354667 0.050454099
0.050483473 0.050361734 0.050598208 0.05103422 0.05097824 0.050733469
0.050808497 0.051020745 0.05070651 0.050832245 0.050830781 0.050721705
0.050868921 0.050680518 0.050939392 0.050820064 0.050652388 0.050639194
0.050659463 0.050991856 0.050900701 0.050564695 0.050713025 0.050744426
0.050693821 0.05072543 0.050500661 0.050628055 0.050776009 0.050891757
0.05097058 0.050793808 0.050876196 0.05097675 0.051016279 0.051016279
0.050778314 0.050852273 0.050961006 0.050914373 0.050644752 0.050631866
0.051000632 0.050885513 0.050715081 0.050968949 0.050980542 0.051036242
0.050898943 0.050514467 0.050653275 0.05110075 0.050946858 0.050650313
0.050628856 0.050723966 0.05093855 0.051370658 0.051481277 0.050869122
0.050730228 0.050940435 0.051020149 0.05067715 0.050514113 0.050768744
0.050765879 0.050798919 0.051025886 0.050652977 0.050421461 0.050370511
0.050219726 0.050218247 0.050408471 0.050613221 0.050528381 0.049743645
0.049804389 0.050123263 0.050263621 0.04969069 0.049341045 0.048852574
0.048931669 0.049002055 0.048740085 0.048528444 0.048360981 0.048282523
0.048141219 0.047821298 0.047498733 0.047435578 0.047549285 0.047757786
0.047642101 0.04757233 0.047326207 0.047229163 0.047383528 0.047113676
0.047181752 0.047564819 0.047596082 0.047564935 0.047727827 0.047977995
0.048240576 0.048596732 0.048753727 0.048716441 0.04892065 0.049028791
0.049118645 0.049499076 0.049532328 0.049520414 0.049768288 0.050098713
0.050181124 0.050281338 0.050383348 0.050570279 0.050588403 0.050505102
0.050486881 0.050724696 0.050768882 0.050617792 0.050610337 0.051202759
0.051308203 0.050868295 0.050883766 0.050907254 0.050813742 0.050794657
0.050787412 0.050613623 0.050768666 0.050969124 0.051038276 0.050930038
0.050735481 0.050847009 0.050812013 0.050998766 0.051001865 0.050533101
0.050655358 0.050867096 0.050636046 0.050810061 0.050636034 0.05060776
0.050932094 0.050811294 0.050913397 0.050955016 0.050984029 0.051043708
0.050800942 0.050800942 0.050677024 0.050906267 0.050986908 0.051184773
0.050929137 0.050696421 0.05091311 0.050907999 0.050987016 0.050933421
0.050579447 0.050775208 0.051083099 0.050951209 0.050871361 0.050885603
0.050872155 0.051003136 0.050959252 0.05106638 0.051279843 0.051439948
0.051150691 0.050734382 0.05076392 0.050785445 0.050800413 0.050968304
0.050885078 0.050772935 0.050903782 0.051166404 0.051021256 0.050547935
0.05018387 0.050333716 0.050768726 0.050670955 0.050361361 0.050291095
0.050335821 0.050402198 0.050410293 0.05040184 0.049990095 0.04927592
0.0490443 0.04885364 0.049004242 0.048869591 0.048898682 0.048383389
0.047932502 0.047978628 0.048093684 0.047564894 0.047400154 0.047519308
0.047474701 0.047288038 0.047290761 0.047451049 0.047189005 0.046911802
0.046856586 0.046931457 0.046947792 0.046998486 0.047239151 0.047278855
0.047585096 0.048036691 0.048160985 0.048363078 0.048703566 0.048834827
0.048972014 0.049119651 0.049430728 0.049516726 0.049476791 0.049635768
0.049744487 0.04963728 0.050120782 0.05039278 0.050376821 0.050546002
0.050653078 0.050599106 0.050501466 0.050730482 0.050861724 0.051239982
0.051015832 0.050792236 0.05112144 0.051213842 0.051002361 0.050875459
0.050951794 0.050935686 0.050893489 0.050713588 0.05070078 0.050995126
0.051049463 0.050876714 0.050924759 0.051036153 0.051013861 0.050856359
0.050865915 0.050792672 0.050811153 0.050980888 0.050887167 0.05086733
0.051054485 0.050961778 0.050823711 0.050901409 0.050836075 0.050809361
0.050787844 0.050888184 0.050897587 0.050897587 0.050855387 0.050739337
0.050711922 0.051155519 0.051227156 0.050761078 0.050784014 0.051135335
0.051248632 0.050928656 0.050635051 0.050806366 0.050772924 0.051135242
0.051264558 0.050830465 0.050974358 0.051215678 0.05122051 0.051335096
0.051191669 0.051034335 0.050836004 0.050943661 0.051120616 0.050710086
0.050632492 0.050892048 0.051135469 0.051238157 0.051276803 0.051152509
0.050535817 0.050437134 0.050424494 0.050885528 0.051055878 0.050886728
0.050579716 0.050147545 0.050277978 0.050888527 0.050530069 0.050058234
0.049542118 0.049341504 0.048980333 0.048948042 0.048873447 0.048706412
0.048574924 0.048237108 0.048001252 0.048140958 0.047683973 0.047219258
0.047564432 0.047655955 0.047107805 0.046782628 0.046946812 0.046772726
0.046705991 0.046546962 0.046462253 0.046645779 0.046759136 0.046723764
0.046765603 0.047086641 0.047783364 0.047982704 0.048121724 0.048287585
0.048378088 0.048653308 0.049051479 0.049022641 0.04949788 0.049705796
0.049547061 0.049548194 0.04948587 0.049562439 0.049879003 0.050476894
0.050694473 0.050537042 0.050736707 0.050863639 0.050662197 0.05052596
0.050791018 0.051227175 0.051528107 0.050874356 0.050718311 0.051138051
0.051229149 0.051077735 0.051159214 0.051059946 0.050904114 0.050859917
0.051014926 0.050968818 0.051018193 0.051003564 0.050685212 0.050938342
0.05121417 0.0509228 0.050874498 0.051148843 0.05110909 0.051060133
0.051006954 0.050821032 0.05100413 0.051133782 0.050863322 0.050897125
0.05101312 0.050800093 0.050652079 0.050927199 0.050887998 0.050887998
0.050975639 0.050803583 0.050853167 0.050985035 0.051039897 0.051003426
0.050914604 0.051050387 0.051059149 0.050953332 0.051013466 0.050735168
0.05057168 0.051107422 0.05126904 0.05122564 0.051283482 0.051165141
0.051257551 0.051329676 0.051114671 0.050840687 0.050973043 0.051408011
0.051212959 0.05089796 0.050860576 0.050895378 0.05117885 0.051339041
0.051138431 0.050778918 0.050633583 0.050926913 0.051175348 0.050941467
0.050641619 0.050768096 0.05065842 0.050500251 0.050539125 0.050680663
0.050177552 0.049671188 0.049748104 0.049694024 0.049239662 0.048946701
0.048639219 0.048634291 0.048546441 0.04819718 0.04832441 0.047933202
0.047465079 0.047360186 0.04746579 0.047234215 0.046820078 0.046353038
0.046093632 0.046036802 0.04613113 0.046300255 0.046348616 0.046326827
0.046471957 0.04651155 0.046504676 0.047112573 0.047747362 0.047936209
0.047837745 0.048300173 0.048671864 0.048598789 0.048853178 0.049086574
0.049154967 0.049475193 0.049726665 0.049794871 0.049868185 0.050128721
0.050131842 0.04992627 0.050489612 0.050727464 0.050544597 0.050882161
0.051138237 0.051045567 0.050969776 0.050948363 0.051064212 0.051167212
0.050933372 0.051053304 0.051411673 0.051465545 0.051146049 0.05107636
0.051197305 0.051272545 0.051195491 0.051066581 0.050996054 0.050918218
0.050980125 0.051004015 0.050988629 0.050992571 0.050832745 0.051238962
0.05138249 0.051010661 0.051082134 0.05116006 0.050822198 0.050715126
0.05104677 0.051043034 0.051056094 0.051132202 0.051002685 0.050859373
0.050623562 0.050623562 0.050872169 0.051005613 0.051068913 0.050970405
0.050912991 0.051108718 0.051058475 0.051029053 0.050951365 0.050792247
0.050962035 0.050931804 0.050993565 0.051153697 0.051256072 0.05138655
0.051331792 0.051278725 0.051188093 0.051212478 0.0512111 0.050840128
0.05112759 0.051533759 0.051374082 0.051208928 0.051349543 0.051301301
0.051395185 0.051039938 0.050633896 0.050937369 0.051106047 0.051123306
0.051019665 0.050851949 0.050449915 0.050389975 0.050656877 0.05080175
0.050834112 0.050500527 0.050060809 0.050057113 0.050071154 0.049892105
0.049505893 0.049033616 0.048640151 0.04839661 0.048368655 0.048531484
0.048004992 0.047617305 0.047541097 0.047365654 0.046916559 0.046369251
0.046338663 0.046122123 0.045710821 0.045523431 0.045686662 0.04592713
0.045905244 0.046140179 0.046304051 0.046224162 0.046396855 0.046964835