# vtk DataFile Version 3.0
axinsert(project(permute(???,2,0,1),0,L2),2)
ASCII
DATASET STRUCTURED_POINTS
DIMENSIONS 128 256 1
ORIGIN 0 0 0
SPACING 1 1 1
POINT_DATA 32768
SCALARS nrrd64688 float
LOOKUP_TABLE default
0.050029248 0.050023999 0.050012521 0.049989045 0.049993064 0.050023064
0.04996616 0.049950052 0.049983073 0.050013185 0.050048999 0.049997348
0.049990002 0.049992055 0.049996011 0.050004058 0.049968086 0.050016068
0.049978029 0.050007205 0.050009999 0.049978014 0.050003164 0.050025016
0.049997002 0.050027005 0.050038051 0.049986068 0.049957041 0.049931169
0.050007027 0.050033037 0.050019018 0.050004102 0.050015148 0.049995318
0.049980011 0.049957007 0.049995065 0.049992245 0.049974158 0.049981385
0.049967293 0.050019734 0.050056018 0.050041068 0.049998011 0.050015017
0.050058026 0.050027456 0.049947083 0.049982999 0.049975038 0.049984079
0.050054044 0.050033063 0.050011016 0.050024066 0.049958382 0.05000608
0.050044391 0.049945012 0.049952134 0.049956035 0.050000317 0.050034009
0.050014053 0.050033025 0.04995906 0.049959045 0.049991112 0.050017104
0.050001137 0.050037194 0.05003107 0.049975008 0.050017089 0.050029021
0.049991034 0.050002042 0.04999502 0.049973127 0.049967092 0.050029486
0.049995083 0.049955092 0.050025068 0.050006229 0.049978267 0.050000004
0.050003 0.049991012 0.05000503 0.050022021 0.050022006 0.050030008
0.049991049 0.049973045 0.05003003 0.050051093 0.05002461 0.049955204
0.049951237 0.049979009 0.049993999 0.050013047 0.050026044 0.050042063
0.049984105 0.049985006 0.04999207 0.050001003 0.050001219 0.049986005
0.050008189 0.049997065 0.049987055 0.050005004 0.050049014 0.049978364
0.049913056 0.050018191 0.049996 0.049979128 0.050003015 0.050022166
0.050029043 0.050029043 0.050047006 0.050094079 0.050038099 0.049912002
0.049998026 0.049966037 0.049962413 0.050000098 0.049944047 0.050041143
0.050064027 0.050018005 0.049996007 0.049911 0.049998183 0.050012998
0.049917031 0.050010037 0.049979106 0.049997032 0.050101209 0.049955081
0.050022144 0.050014108 0.049974058 0.050077002 0.050019044 0.049922168
0.04991819 0.050001122 0.050026186 0.050033033 0.050061025 0.049998011
0.050012998 0.050012045 0.049940009 0.049845129 0.049946107 0.050009165
0.049945101 0.050014127 0.049970001 0.050058998 0.050131999 0.050033003
0.050001089 0.050092038 0.050132006 0.049990058 0.049888074 0.049958006
0.049987048 0.049956046 0.050093025 0.050023001 0.049987175 0.05009805
0.049902022 0.049952045 0.050061166 0.049875077 0.049943157 0.050018005
0.050018009 0.050051 0.050027002 0.050073013 0.04992602 0.049876001
0.049985114 0.049954027 0.049986374 0.050078005 0.050099574 0.049908999
0.049929891 0.050125349 0.050073229 0.050025005 0.05002708 0.049888
0.049806215 0.050060142 0.050099324 0.050004002 0.050119001 0.049955096
0.049954016 0.050073307 0.050013036 0.04995523 0.049974021 0.050045017
0.050038006 0.049974043 0.05002417 0.050005291 0.05005702 0.050113153
0.050013002 0.049952999 0.049856167 0.049930044 0.050090197 0.05005816
0.050004479 0.050000999 0.049935006 0.049938001 0.050025068 0.050051101
0.05002401 0.050063197 0.049985263 0.049930006 0.049967088 0.050028004
0.050057177 0.049883034 0.049815018 0.05005401 0.050051998 0.049945049
0.050011028 0.050050147 0.050049081 0.050049081 0.050021015 0.050109018
0.050056044 0.049862012 0.050027139 0.049910013 0.05000519 0.050077043
0.049951185 0.050020069 0.050011262 0.050062019 0.049981128 0.049834028
0.049972322 0.050020128 0.049938418 0.04998409 0.050008491 0.049985044
0.050112464 0.049971074 0.050018631 0.050056018 0.04997617 0.050043046
0.049927246 0.049925383 0.049977038 0.050112143 0.050061006 0.049977023
0.050014056 0.049982246 0.049988061 0.050029423 0.04994804 0.049842436
0.04996001 0.049990222 0.049980082 0.050073065 0.050044999 0.050044999
0.050069023 0.049940042 0.050017208 0.050129998 0.050118193 0.049945012
0.049902245 0.049944006 0.050046261 0.050018039 0.050008036 0.049945086
0.049898431 0.050094485 0.049992394 0.049957037 0.050009198 0.049928073
0.050030015 0.050103012 0.050011002 0.050013002 0.049981032 0.04997009
0.049994696 0.049888 0.049915552 0.049957152 0.050021224 0.050036017
0.050055586 0.049918082 0.049846396 0.050152227 0.050180364 0.050030008
0.050049253 0.049911998 0.049823094 0.050046254 0.050123081 0.050084092
0.050104104 0.049954999 0.050026003 0.050118238 0.050026018 0.049937285
0.04996207 0.05003928 0.049944073 0.049886022 0.050106019 0.050074026
0.050010126 0.050078005 0.049954027 0.050029062 0.049902242 0.049940005
0.050178293 0.050081097 0.049922317 0.049874023 0.04997303 0.049956266
0.050048083 0.05005936 0.050019026 0.050134122 0.049961124 0.049911045
0.049965218 0.050017029 0.049970035 0.049849004 0.049904007 0.050040144
0.050104 0.049951233 0.049996 0.050017085 0.050008018 0.050008018
0.050008062 0.050069012 0.050049275 0.049874004 0.050049171 0.049938008
0.04998507 0.050016034 0.049988534 0.050013002 0.050006598 0.050055001
0.04992985 0.049838122 0.04995336 0.049996164 0.049943708 0.049957279
0.049995076 0.050009411 0.050071813 0.049951639 0.050073169 0.050116155
0.049963836 0.05001748 0.049895853 0.049980681 0.050028328 0.050059386
0.050103772 0.049982294 0.049954735 0.049998436 0.049951434 0.050018758
0.04994243 0.049871732 0.050007164 0.049958505 0.050011322 0.05009928
0.050048217 0.050017398 0.050060425 0.049950249 0.050055139 0.050106037
0.050082367 0.049967188 0.049908198 0.049958099 0.050074067 0.05004606
0.049934115 0.049880393 0.049866375 0.050097387 0.050061259 0.049994078
0.05002426 0.049999069 0.050048005 0.050064038 0.0499782 0.050007168
0.049959339 0.049854189 0.050003991 0.049917158 0.049873516 0.050048113
0.050055161 0.049982127 0.050041489 0.049967036 0.049861096 0.050126009
0.050210401 0.050061002 0.050048076 0.049943008 0.049975004 0.050050568
0.050034005 0.05002705 0.050035141 0.050039001 0.050119009 0.050108198
0.050035011 0.049976189 0.049964324 0.050028209 0.049852308 0.049928021
0.050132845 0.05006 0.050005466 0.050027009 0.049959108 0.050056029
0.049955353 0.04995716 0.0501706 0.05006405 0.049935333 0.049879178
0.050036512 0.049971372 0.05006044 0.050017577 0.049963158 0.050123118
0.049936101 0.049951013 0.049966339 0.049952023 0.049960054 0.04985502
0.049955036 0.050028153 0.050084017 0.049968008 0.049963068 0.049994003
0.049992029 0.049992029 0.050012097 0.050015021 0.050006434 0.049904015
0.050055336 0.049967017 0.049919218 0.049935166 0.050028794 0.050007101
0.049989 0.050009239 0.049886726 0.049930457 0.049951568 0.04994151
0.049903192 0.049921069 0.049970839 0.050042104 0.050043404 0.049921494
0.050148062 0.050105002 0.049904503 0.050029714 0.049911063 0.050014332
0.050060581 0.04999629 0.050098438 0.049987815 0.049978286 0.050044164
0.049924385 0.050023273 0.04995532 0.049912978 0.05001371 0.049939007
0.050033811 0.050109886 0.050005719 0.049993142 0.050112888 0.050042395
0.050098125 0.050070174 0.050028313 0.050004467 0.049931172 0.050005317
0.05005905 0.049997419 0.049887273 0.049861573 0.049901217 0.050122272
0.05009513 0.049959172 0.050014392 0.050078269 0.050039064 0.049983386
0.049942475 0.049979616 0.0499768 0.049836274 0.049994692 0.049991291
0.049921196 0.050064031 0.050012313 0.049948271 0.050101425 0.050051011
0.049880013 0.050048016 0.050195351 0.050140999 0.050039034 0.049974002
0.05010001 0.0500402 0.049959 0.049979016 0.050023999 0.050104037
0.050179094 0.050105136 0.050043184 0.050057132 0.049986877 0.050026368
0.049850278 0.049998526 0.050079882 0.049993169 0.050036903 0.049962349
0.049988378 0.05010958 0.049968854 0.049998704 0.05011351 0.050022289
0.049984865 0.049935732 0.05003342 0.049941473 0.050096054 0.049964551
0.049899474 0.050096184 0.049898267 0.049986031 0.049976382 0.049904041
0.049961228 0.049845044 0.049976133 0.050025057 0.050010111 0.04998802
0.049953103 0.049991045 0.049976114 0.049976114 0.049998134 0.049961001
0.049954481 0.049908102 0.050033648 0.049983326 0.04989364 0.049886294
0.050017115 0.049982592 0.049952514 0.049958069 0.049869329 0.050017189
0.049940467 0.049887333 0.049844086 0.049877252 0.049988907 0.050067876
0.050011758 0.04987362 0.050144982 0.050071727 0.049880829 0.050056502
0.049965255 0.050019611 0.050056078 0.049955208 0.050044827 0.050003693
0.050039131 0.050111324 0.049936812 0.05002955 0.049991779 0.04996578
0.050007891 0.049941793 0.05002759 0.050122913 0.050004374 0.049991474
0.050195135 0.050141573 0.050113343 0.050052427 0.049985424 0.050021783
0.049938388 0.050021801 0.050045338 0.04994981 0.049902484 0.04988946
0.049944218 0.050125219 0.050097261 0.049910333 0.049985446 0.050124515
0.05001229 0.049934871 0.049919475 0.049950957 0.05003573 0.049883302
0.049989335 0.050053269 0.049979143 0.050015081 0.049946442 0.049954306
0.050170287 0.050144065 0.049925007 0.049974035 0.050166115 0.050192002
0.050038051 0.050032023 0.050144039 0.050015051 0.049943008 0.0500101
0.050056282 0.050134245 0.050185446 0.050128147 0.050055768 0.05012016
0.050057575 0.050077833 0.049892902 0.050005414 0.050033618 0.049931075
0.050063737 0.049921326 0.05001349 0.050159637 0.049974766 0.050062984
0.050068714 0.049979474 0.050024722 0.049974944 0.049974054 0.049925234
0.050082769 0.049902573 0.049871884 0.050065443 0.049860556 0.049983267
0.049972381 0.049908187 0.049958516 0.049825191 0.049960338 0.050022069
0.049958229 0.04997601 0.049931049 0.050004005 0.049952053 0.049952053
0.049950168 0.049916051 0.049907424 0.049878225 0.049964949 0.049978014
0.049924217 0.049857706 0.049957834 0.049956601 0.049903348 0.049923431
0.049864948 0.050032508 0.04993638 0.049866598 0.049797602 0.049837425
0.050013278 0.050057132 0.049969405 0.049813308 0.050055001 0.050049614
0.049933687 0.050066661 0.050010603 0.050019152 0.05002141 0.049940504
0.049985625 0.050049059 0.050085057 0.050168816 0.049997039 0.050030705
0.050040811 0.05000766 0.050015174 0.049977444 0.050018024 0.05014316
0.0500594 0.050028894 0.050254617 0.050202318 0.050127983 0.050054915
0.049949925 0.050016236 0.049928077 0.05001539 0.050061971 0.049954988
0.04996267 0.049923401 0.049975343 0.050098218 0.050065581 0.049909566
0.04996739 0.05012162 0.049969558 0.049943067 0.049922395 0.049933843
0.05010654 0.049933344 0.049995262 0.050062217 0.049989302 0.049977269
0.049927436 0.049989175 0.050194144 0.050199181 0.05001802 0.049969044
0.050147004 0.05018403 0.050063007 0.050105155 0.050134119 0.049999095
0.049994137 0.050113592 0.050089266 0.050139878 0.050154235 0.050157536
0.050062604 0.050166529 0.050157364 0.050164949 0.049940154 0.04997579
0.050030671 0.049905922 0.050075497 0.049931094 0.05003408 0.050148331
0.050004341 0.050116323 0.050038647 0.049935665 0.050027508 0.049991436
0.049929719 0.049924206 0.049981333 0.049842086 0.049874406 0.050035063
0.049846873 0.049954075 0.049940489 0.049943678 0.049954802 0.049809605
0.049915623 0.050003301 0.049949266 0.049924303 0.049878009 0.050004043
0.049924005 0.049924005 0.049886171 0.049891107 0.049866293 0.049815323
0.049855065 0.049951561 0.049940664 0.049815822 0.049880713 0.049934231
0.049858481 0.049907222 0.049857892 0.049982585 0.049937874 0.049870856
0.049775064 0.04982239 0.050014239 0.049989566 0.049925365 0.049772002
0.049936257 0.05003687 0.050010815 0.050060786 0.050014403 0.050032329
0.049977925 0.049950119 0.049957495 0.050106321 0.050112817 0.050188407
0.050082561 0.050050564 0.050075557 0.050018903 0.05002965 0.050044458
0.050052442 0.050185677 0.050133906 0.050080977 0.050264921 0.050238155
0.050171323 0.050067049 0.049936064 0.049996886 0.049922202 0.050032821
0.050110541 0.049996078 0.050022978 0.049955562 0.050000478 0.050063364
0.050009772 0.049953919 0.049969334 0.050089762 0.049934689 0.04997398
0.049955472 0.049917519 0.050138619 0.049960561 0.050024424 0.050043225
0.049961552 0.049982462 0.049976412 0.050043058 0.050167058 0.050220206
0.050130013 0.050037026 0.050155193 0.050143085 0.050108075 0.050168302
0.050125413 0.050018422 0.050097916 0.050242756 0.050116897 0.050127346
0.050126646 0.05017402 0.050057776 0.050207984 0.050269511 0.05024343
0.049975999 0.049975377 0.050046533 0.049923677 0.05008547 0.049970981
0.050043613 0.050101981 0.050052252 0.05010628 0.050003998 0.049894255
0.049995955 0.050009985 0.049944296 0.049905863 0.049838331 0.049800664
0.049867608 0.04998919 0.049856536 0.049919434 0.049896941 0.0499787
0.049935199 0.049801223 0.049878933 0.049950875 0.049943235 0.049857695
0.049807001 0.049966186 0.049907114 0.049907114 0.04982914 0.049881179
0.04982226 0.049732558 0.049741063 0.04990387 0.049886018 0.049755394
0.049809285 0.049897894 0.04982271 0.049896099 0.049837332 0.049896341
0.049919315 0.049861599 0.049766533 0.049829923 0.050002296 0.049888704
0.049887698 0.049774226 0.049852151 0.05002673 0.050046816 0.050045423
0.049989987 0.050053678 0.049938541 0.049974475 0.049977671 0.050138701
0.050138008 0.050184708 0.050160002 0.050091155 0.050085388 0.050012171
0.05004555 0.05012222 0.050141681 0.050259691 0.050200026 0.050116878
0.050238244 0.050268728 0.050238673 0.050088074 0.049970996 0.049999818
0.04994024 0.050088093 0.050166931 0.050029319 0.050057564 0.050015043
0.050020613 0.050039779 0.04995079 0.050009403 0.049989376 0.050046016
0.049931809 0.049986862 0.05001276 0.04989833 0.050098896 0.049979981
0.050079655 0.050036352 0.049923606 0.050011583 0.050069403 0.050116021
0.050126024 0.050237104 0.050216001 0.050138004 0.050197396 0.050123174
0.050152488 0.050217431 0.050173081 0.050092358 0.050219797 0.050348386
0.050160941 0.050116878 0.05012396 0.050175052 0.050057881 0.05024239
0.050375614 0.050290272 0.05000161 0.050024327 0.050053418 0.049975336
0.050102506 0.050006837 0.0500414 0.050072648 0.050089613 0.050041214
0.049971979 0.0498682 0.049945492 0.050023086 0.04999043 0.04985629
0.049728684 0.049783468 0.049830176 0.049920101 0.049871348 0.049874261
0.049857181 0.049990125 0.049886961 0.049776964 0.049854286 0.0498625
0.049905255 0.049784776 0.049745001 0.049899343 0.049894188 0.049894188
0.049775105 0.049853299 0.049756475 0.049658123 0.049652193 0.049833339
0.049786642 0.049700502 0.049757693 0.049826842 0.049780093 0.04986573
0.049786672 0.04980769 0.049869906 0.049817342 0.049762689 0.049840454
0.049978744 0.049798515 0.049854692 0.049811125 0.049823191 0.05001466
0.050029363 0.05002654 0.049965788 0.05006751 0.049911886 0.049998675
0.050033841 0.050136693 0.050168384 0.050188415 0.050211564 0.050130662
0.050083309 0.050022747 0.050079085 0.050195545 0.050249953 0.050347403
0.050257921 0.050138496 0.05020896 0.05028509 0.050296947 0.050123692
0.050048459 0.050061248 0.049997918 0.050160404 0.050206326 0.050037891
0.050065242 0.05010581 0.050041895 0.050032374 0.049908891 0.05004479
0.050021615 0.050001312 0.049962025 0.049979791 0.050071098 0.049890377
0.050008044 0.050010312 0.050145689 0.050059572 0.049903352 0.050032545
0.050169297 0.050198026 0.050112009 0.050267011 0.050256029 0.05023
0.050275452 0.050159387 0.050190132 0.050270755 0.050294168 0.050218031
0.050323367 0.050415255 0.050238106 0.050132241 0.050145328 0.050175183
0.050084524 0.050271716 0.050449401 0.050312445 0.050033275 0.050090969
0.050052598 0.050041012 0.050119415 0.050024394 0.050040517 0.050075546
0.050089598 0.049972396 0.049959872 0.049869873 0.049892325 0.050009422
0.050020792 0.049798612 0.049674686 0.049773876 0.049777988 0.049849808
0.049877793 0.049807634 0.049808625 0.049957614 0.049817082 0.049720805
0.049820755 0.049757835 0.049832445 0.049696695 0.049711 0.049837474
0.049858101 0.049858101 0.049709074 0.049770471 0.049655996 0.049610987
0.049586628 0.049740206 0.049699705 0.049664062 0.049717639 0.049724612
0.049713932 0.049799506 0.049693283 0.049732529 0.049803507 0.049748238
0.049768288 0.049833018 0.049927492 0.049746379 0.049827132 0.049851038
0.04983281 0.049991481 0.049985722 0.050009537 0.0499608 0.050063606
0.049909826 0.050018433 0.050094768 0.050120603 0.050201274 0.050218109
0.050239217 0.050152313 0.050091721 0.050071452 0.050139446 0.050263632
0.050339028 0.050417095 0.050311826 0.050177008 0.050206669 0.050273288
0.050329458 0.050182413 0.050141737 0.050182171 0.050099574 0.050231989
0.050223913 0.05003868 0.050065722 0.050192513 0.050074495 0.050040822
0.049898233 0.050056756 0.050053086 0.049972445 0.050015204 0.049972758
0.050100181 0.049910672 0.049926791 0.050045196 0.050196532 0.050119713
0.04992307 0.050032258 0.050249081 0.050264008 0.050143 0.050316054
0.050263174 0.050300084 0.050382629 0.050247986 0.050233997 0.050346736
0.050453823 0.050362006 0.050403733 0.050459452 0.050348479 0.050188925
0.050186839 0.050190084 0.050148025 0.050300535 0.050471429 0.050331842
0.050081719 0.050140101 0.050065394 0.050105013 0.050128497 0.050024275
0.05005249 0.050093018 0.05004869 0.049931955 0.04996049 0.049893439
0.049846411 0.049964145 0.05000823 0.049753502 0.049652454 0.049753428
0.049724955 0.04979784 0.049873699 0.049729191 0.049732983 0.049865007
0.049738351 0.04964171 0.049756534 0.049652949 0.049744878 0.049582746
0.049699035 0.049790557 0.049778018 0.049778018 0.049621046 0.049629692
0.049525414 0.049575739 0.049527276 0.049632259 0.049645063 0.049626868
0.049662787 0.049617589 0.049626384 0.049694307 0.04957084 0.049668431
0.049735371 0.049678169 0.049782488 0.049800865 0.049841367 0.049721312
0.049808342 0.049871784 0.049851183 0.049958762 0.049947739 0.050004199
0.049977209 0.050045468 0.049937103 0.050033711 0.050141998 0.05012352
0.050231736 0.050266013 0.050248757 0.050163344 0.050123531 0.050149947
0.050221793 0.050333716 0.050397869 0.050451986 0.050362937 0.050249726
0.050247043 0.050250977 0.050347544 0.050267991 0.050234519 0.050326228
0.05023475 0.05029897 0.050236888 0.050058372 0.050079942 0.050239805
0.050120346 0.050064977 0.049922757 0.050056309 0.050069612 0.049979266
0.050070155 0.049982697 0.050082918 0.049962066 0.049912371 0.050065737
0.050221339 0.050212607 0.050007999 0.050024003 0.050300002 0.050306045
0.050214104 0.05039056 0.050269704 0.050355811 0.050495327 0.050362453
0.050293379 0.050448947 0.050591264 0.05048307 0.050485667 0.05051342
0.050474428 0.050292861 0.050256595 0.050231021 0.050242625 0.050340753
0.050448123 0.050358914 0.050139599 0.050159555 0.050100811 0.050165605
0.050138202 0.050007567 0.050072964 0.050104186 0.049982328 0.049908668
0.049947962 0.04991515 0.049808752 0.049906779 0.049955986 0.049730282
0.049635746 0.049719527 0.04966329 0.049752835 0.049852245 0.049666166
0.049636919 0.049724489 0.049652498 0.049565695 0.049659748 0.04954822
0.049669635 0.049453106 0.04967824 0.049735602 0.049665 0.049665
0.049518015 0.049470011 0.049390178 0.049515065 0.049454734 0.049509093
0.049590342 0.049552552 0.049565047 0.049535327 0.049536142 0.049566299
0.049458131 0.0495997 0.049655542 0.049612947 0.049790099 0.049748883
0.049747597 0.049694821 0.049800258 0.049862176 0.049854994 0.04992298
0.049914569 0.050005246 0.05000243 0.050021779 0.049983673 0.05005106
0.050179891 0.050163526 0.050258961 0.050317097 0.050242923 0.050178289
0.050174192 0.050233547 0.050315659 0.050408229 0.050443251 0.050463501
0.05041071 0.050344799 0.050327539 0.050257076 0.050377749 0.050370131
0.050330132 0.050454773 0.050379444 0.050367188 0.050278198 0.05011965
0.050115995 0.05024771 0.050165843 0.05010194 0.049988136 0.050062783
0.050069861 0.050025791 0.050110959 0.050011545 0.050032537 0.05002914
0.04997313 0.050056349 0.050222229 0.050318357 0.050153017 0.050041169
0.050333139 0.050349452 0.05031053 0.050486673 0.05030781 0.0504109
0.05059085 0.050475005 0.050366435 0.050568465 0.050673228 0.050560538
0.050587468 0.050598279 0.050594892 0.050438851 0.050360918 0.05030261
0.050363623 0.050395817 0.050409108 0.050380457 0.050188072 0.050157871
0.050145954 0.050224762 0.050167482 0.049979605 0.050082073 0.050094698
0.049912613 0.049878672 0.04991461 0.049906064 0.049764704 0.049858522
0.049880318 0.049717616 0.04962616 0.049675576 0.049572989 0.049684979
0.049798246 0.049625393 0.049546145 0.049569238 0.04955728 0.049513742
0.049549099 0.049443968 0.049612664 0.049329899 0.049617875 0.049634669
0.049534004 0.049534004 0.049405999 0.04933548 0.049279597 0.049405094
0.049363635 0.049362443 0.049489994 0.049426895 0.049426921 0.049483482
0.049462572 0.049434029 0.049382787 0.049518581 0.049551353 0.049539205
0.049765546 0.049685717 0.049691748 0.049650099 0.049793046 0.04982204
0.049832225 0.049893834 0.04986722 0.049989056 0.050016679 0.050002649
0.050029192 0.050085384 0.050225466 0.050232664 0.05028097 0.050360397
0.050232299 0.050199028 0.050236072 0.050317228 0.050413102 0.050478429
0.050494745 0.050479338 0.050465673 0.050435487 0.05043146 0.050321709
0.050428122 0.050464775 0.050437432 0.050564867 0.050508566 0.050440814
0.050359994 0.050229233 0.050164726 0.050252229 0.050201304 0.050134636
0.050087031 0.050079379 0.050075736 0.050092239 0.050123844 0.050057296
0.049977347 0.05008078 0.050062146 0.050026245 0.050222259 0.050404184
0.050327007 0.050104346 0.050380215 0.05042509 0.05041106 0.050591551
0.050396733 0.050476439 0.05066251 0.050576452 0.050450265 0.050687816
0.050707396 0.050600003 0.05070477 0.050712496 0.050695624 0.050610561
0.050494064 0.050408296 0.050503969 0.050472282 0.050382175 0.050367605
0.050219696 0.050145045 0.050167084 0.050275084 0.050219804 0.049960896
0.050066851 0.050051197 0.049851686 0.049842708 0.049879253 0.049849756
0.049698222 0.049819887 0.049794938 0.049703375 0.04963249 0.049625318
0.049456026 0.049585655 0.049696878 0.049579456 0.049479723 0.049427237
0.049445394 0.04949376 0.049447842 0.049352176 0.049563669 0.049231905
0.049509913 0.049460836 0.049386006 0.049386006 0.049281009 0.049240012
0.049207252 0.049256094 0.049267109 0.049191341 0.049329586 0.0492636
0.049276281 0.049433138 0.049407974 0.049313173 0.049341049 0.04942169
0.049434483 0.049458582 0.049699109 0.049619351 0.049692824 0.049580939
0.049764711 0.04975462 0.049781963 0.049873184 0.049787555 0.049927179
0.049991071 0.049999107 0.050049219 0.050146468 0.050294124 0.050302781
0.050294623 0.050396129 0.05023998 0.050215729 0.05030378 0.050413661
0.05050334 0.050534602 0.050571512 0.050527394 0.050537486 0.050507132
0.050537117 0.050446585 0.050488286 0.050518438 0.050554696 0.050681606
0.050615326 0.050515521 0.050474811 0.050367903 0.050214853 0.050288245
0.050228976 0.050130896 0.050198432 0.050092116 0.050114285 0.050142001
0.050101928 0.050109111 0.049932502 0.050085407 0.050104696 0.050008524
0.050249577 0.050448202 0.050481338 0.050215065 0.050476067 0.050534111
0.050484829 0.050687954 0.050537057 0.050568864 0.050716504 0.050661456
0.05054393 0.050795209 0.050725684 0.050628345 0.050817363 0.050836138
0.050777402 0.050778806 0.050632779 0.050545234 0.050645798 0.050569043
0.050382275 0.050302342 0.050248548 0.050129015 0.050131753 0.050297897
0.050281316 0.049980771 0.050034955 0.049965441 0.049803659 0.049823359
0.049870808 0.0497499 0.049602598 0.049773198 0.04971147 0.049680877
0.049650922 0.049571868 0.04934793 0.049472958 0.049550518 0.049496863
0.049432773 0.049301021 0.049312934 0.049488474 0.049367309 0.049292214
0.049505088 0.049161293 0.049375605 0.049227994 0.049217012 0.049217012
0.04913602 0.049154192 0.049165241 0.049112115 0.049184568 0.049016885
0.049138173 0.049096163 0.04914967 0.049333889 0.04936086 0.049214602
0.049300008 0.049314797 0.049345393 0.049393311 0.049606655 0.049555551
0.049726572 0.04949262 0.04969494 0.04967159 0.049719334 0.049852058
0.049683247 0.049819589 0.049916968 0.05002046 0.050035048 0.050221127
0.050380621 0.050340634 0.05029102 0.05042981 0.050290663 0.050221205
0.050385479 0.050538357 0.050571185 0.050576448 0.050675869 0.050619204
0.050630666 0.05056655 0.050632726 0.050606038 0.050551482 0.050524149
0.050679259 0.050824411 0.050708633 0.05059858 0.05059373 0.050491299
0.050248604 0.050367165 0.050251044 0.05006811 0.050276618 0.050098002
0.050171651 0.050142054 0.050038062 0.050130069 0.049892269 0.050026361
0.050052691 0.050040521 0.050315578 0.050453596 0.050562631 0.05036233
0.050638117 0.050632261 0.050519019 0.050758399 0.050717283 0.050697137
0.050758187 0.050735228 0.050642759 0.050891522 0.050751593 0.050677828
0.050906315 0.050951008 0.050860323 0.050913982 0.050747719 0.050700881
0.050767388 0.050677296 0.050408449 0.050198954 0.050295778 0.050120085
0.050042253 0.050281409 0.050326575 0.050051283 0.050015416 0.049857493
0.049772844 0.049840234 0.049896766 0.049624693 0.049494341 0.049700394
0.049632836 0.049655668 0.049657781 0.049524136 0.049295921 0.04936453
0.04939517 0.049381975 0.049389306 0.049170684 0.049162466 0.049462579
0.049294885 0.049270175 0.049415547 0.049100474 0.049255177 0.048987817
0.049038023 0.049038023 0.048975006 0.049038671 0.049121514 0.049015008
0.049126282 0.048872124 0.048968554 0.048952274 0.049063023 0.049156234
0.04931232 0.049146667 0.049229488 0.049207222 0.049316786 0.049367972
0.049507517 0.049489439 0.04973942 0.049403351 0.04958139 0.049598772
0.049667634 0.049826104 0.049587239 0.049700603 0.049816687 0.050068893
0.050005574 0.050275963 0.050459154 0.050335515 0.050272986 0.050469842
0.05039075 0.050226912 0.050497279 0.050685868 0.050608236 0.050614979
0.050794076 0.050752204 0.050737925 0.050645545 0.050723825 0.050775174
0.050629631 0.050520841 0.0508052 0.050982244 0.050795414 0.050706014
0.050685007 0.050548412 0.050249007 0.05047036 0.050248355 0.049955226
0.050277047 0.050097056 0.050190099 0.050078019 0.04994094 0.050077226
0.049836755 0.049910832 0.049922187 0.050124217 0.050403681 0.050436832
0.050551258 0.050510876 0.05083077 0.050678436 0.050536454 0.050798301
0.050914809 0.050854217 0.05080704 0.05080067 0.050755467 0.050989501
0.050790004 0.050772607 0.05097574 0.051053379 0.05097723 0.051011562
0.050823774 0.050862856 0.050857998 0.050779484 0.050453629 0.050106365
0.050365672 0.050143119 0.049946997 0.050238453 0.050342549 0.050153207
0.050026607 0.04977224 0.049763635 0.049885668 0.049931277 0.049496181
0.049401369 0.049598545 0.049560357 0.049637493 0.049628776 0.049488842
0.049321614 0.049260896 0.04927573 0.049285326 0.049335338 0.049025364
0.049015392 0.049380094 0.049207583 0.049268041 0.04928131 0.049029153
0.049166966 0.048809286 0.04888704 0.04888704 0.048825018 0.048890777
0.049039967 0.048972655 0.049097285 0.04877818 0.048872478 0.048845556
0.048998367 0.048917759 0.049259622 0.049110979 0.049119771 0.049115345
0.049345497 0.049381454 0.049407482 0.049409185 0.049688958 0.049343489
0.049445216 0.04956089 0.049641613 0.049790755 0.04953469 0.049626194
0.049740884 0.050125208 0.049995642 0.050276414 0.050493494 0.050304927
0.050260827 0.050521981 0.05052143 0.05026703 0.050648578 0.050827559
0.0506262 0.050666306 0.050896022 0.050909191 0.050849482 0.0507829
0.050832059 0.050921783 0.050757051 0.050565016 0.050935112 0.051101923
0.050888546 0.050840609 0.050746445 0.050507575 0.050223213 0.050543766
0.050204642 0.049817592 0.05019122 0.050077192 0.050124068 0.049949076
0.049833529 0.049920786 0.049756117 0.049764097 0.049782988 0.050213631
0.050464857 0.050407253 0.050461132 0.050604723 0.05097571 0.050671261
0.050573725 0.050841577 0.051066943 0.051028512 0.05088599 0.050873436
0.050895646 0.051110055 0.050849028 0.050910491 0.051039182 0.051159337
0.051144302 0.051086508 0.050876282 0.051022798 0.050922684 0.050846823
0.050502289 0.050083715 0.050431713 0.050224364 0.04991632 0.050195836
0.050334539 0.05024045 0.050055001 0.049750146 0.049777906 0.049930453
0.04992782 0.049388811 0.049348637 0.049487315 0.049490485 0.049622007
0.049554504 0.049457211 0.049399812 0.049157023 0.049218014 0.049266528
0.049267087 0.048877507 0.048901569 0.049238287 0.049086001 0.049242757
0.049116094 0.048932429 0.049084119 0.04874 0.048810042 0.048810042
0.048711266 0.048753195 0.048904281 0.048955061 0.049088486 0.048725337
0.048865121 0.048773993 0.048925214 0.04867696 0.049189448 0.049085438
0.048980065 0.049047694 0.049386393 0.049397659 0.049305692 0.049312849
0.049576439 0.04933355 0.049321096 0.049562372 0.049632687 0.049744505
0.049543817 0.049633745 0.049737621 0.050149258 0.050029654 0.050215043
0.050460827 0.050280232 0.05028408 0.050579127 0.05064448 0.050373834
0.050820392 0.05092825 0.050658539 0.050745476 0.050958216 0.051082138
0.050973341 0.050991796 0.050975095 0.051025003 0.050950784 0.050698787
0.051071096 0.051125456 0.050994541 0.050980404 0.050778065 0.050407074
0.050178584 0.050539382 0.050114173 0.049700469 0.050025459 0.050022319
0.049966455 0.049774375 0.049732242 0.049681578 0.049652521 0.049613751
0.049697217 0.050238073 0.050442662 0.050366793 0.050330911 0.050601162
0.05099915 0.050639831 0.05067696 0.050911803 0.051139224 0.05118734
0.05100739 0.050985955 0.051059164 0.051281817 0.050946668 0.051061023
0.051117007 0.05128419 0.051345952 0.051162839 0.050946243 0.051175494
0.050986622 0.050857268 0.05054203 0.050163351 0.050463036 0.050372027
0.049991854 0.050176945 0.050315488 0.05027112 0.05006101 0.049792998
0.049799874 0.049942184 0.049852069 0.049328357 0.04934397 0.049395066
0.049426451 0.049589757 0.049447108 0.049403988 0.049482185 0.049067374
0.049207121 0.049330167 0.049193624 0.048752863 0.048844483 0.049079686
0.048941173 0.049154241 0.04895743 0.04881442 0.04897102 0.048763048
0.048813011 0.048813011 0.048646014 0.048682041 0.048743375 0.04893038
0.049080823 0.048693914 0.048917249 0.048724152 0.048828188 0.048504028
0.049080636 0.049032513 0.048837975 0.049002849 0.049382485 0.049373459
0.049218316 0.049218625 0.049435299 0.049367528 0.049240563 0.049578868
0.049616028 0.049690783 0.049601119 0.049709644 0.049821965 0.050114028
0.050100788 0.050139602 0.050374046 0.050288744 0.050358478 0.050627429
0.050732125 0.050551329 0.050968751 0.050977953 0.050737821 0.050863985
0.050992019 0.05126895 0.051121287 0.051248133 0.051142126 0.051096447
0.051175233 0.050925933 0.051200688 0.051056482 0.051091872 0.051092282
0.050791863 0.050337743 0.050136328 0.050436407 0.049990516 0.049635325
0.049794544 0.049903579 0.049755577 0.049582262 0.049624246 0.049414966
0.049534425 0.049488921 0.049670868 0.050138373 0.050302673 0.050311625
0.050204478 0.050509125 0.05088263 0.05063165 0.050848842 0.051011849