# vtk DataFile Version 3.0
axinsert(project(permute(???,2,0,1),0,L2),2)
ASCII
DATASET STRUCTURED_POINTS
DIMENSIONS 128 256 1
ORIGIN 0 0 0
SPACING 1 1 1
POINT_DATA 32768
SCALARS nrrd28693 float
LOOKUP_TABLE default
0.050024152 0.049952008 0.050001159 0.050005004 0.049960159 0.049989056
0.050031208 0.050002072 0.049997132 0.049985025 0.050009094 0.050067138
0.05001431 0.049976043 0.050005067 0.049957078 0.050001089 0.050009139
0.050012324 0.04995703 0.049947478 0.050002795 0.050036468 0.049998097
0.049986541 0.049992211 0.05004466 0.04998314 0.049956255 0.050008189
0.049998436 0.050045613 0.05000212 0.049976505 0.050004277 0.050011516
0.050028149 0.050042197 0.050002005 0.049965128 0.050002515 0.04999901
0.049961515 0.050029378 0.050021056 0.049934279 0.050018478 0.050042015
0.050017372 0.050013021 0.049981102 0.049981162 0.050023314 0.05001121
0.050008111 0.049980029 0.049978331 0.049980264 0.050043553 0.050003059
0.04996663 0.05001016 0.049991541 0.050005179 0.049968205 0.050030779
0.050045151 0.049998108 0.049998097 0.049997222 0.049980041 0.049972169
0.049953315 0.049967639 0.050057568 0.05001606 0.050029088 0.050027013
0.049967356 0.050008062 0.05001203 0.050000176 0.050031018 0.05002401
0.050003011 0.049946059 0.049955446 0.05002401 0.05005601 0.050058194
0.050000023 0.049956243 0.049946006 0.050001048 0.049995072 0.050036076
0.050023999 0.050011057 0.049979042 0.049964018 0.049960092 0.049979016
0.050003193 0.050035004 0.050022062 0.049990002 0.049987067 0.049953051
0.050005399 0.050011005 0.049978346 0.050035059 0.050051071 0.049947184
0.04998542 0.050064076 0.05001203 0.049972128 0.049987026 0.050028034
0.050026011 0.049997207 0.049978007 0.049982011 0.049977012 0.050036095
0.049986243 0.049986243 0.050036006 0.049883008 0.05000205 0.049963005
0.049952347 0.050020009 0.049973127 0.050026428 0.050014067 0.049992174
0.05000703 0.05018428 0.050014008 0.049944285 0.049982108 0.049852371
0.049954433 0.049941979 0.049993116 0.050014053 0.049924385 0.049963512
0.050087839 0.05003646 0.04996841 0.050042402 0.050132319 0.049914125
0.049881004 0.050059222 0.049953386 0.050015368 0.050002076 0.049976606
0.050026633 0.04999673 0.050035749 0.050080035 0.049956206 0.049977459
0.050039399 0.04995722 0.049958933 0.050033692 0.050050225 0.049982905
0.050030094 0.049977541 0.049981602 0.050057042 0.049982242 0.049927145
0.049999233 0.05005613 0.050013185 0.049932402 0.049986806 0.049961969
0.049976077 0.05006114 0.049979798 0.050014134 0.049961191 0.050018951
0.04997376 0.049993712 0.050132081 0.050054803 0.050007295 0.049978547
0.050027121 0.049928728 0.049943145 0.050016195 0.050038245 0.049959775
0.050005868 0.050068244 0.049980294 0.050089803 0.050023519 0.049976006
0.050066691 0.050053079 0.049984746 0.049931798 0.049976353 0.050070535
0.0500791 0.050049827 0.050034627 0.049922444 0.05001346 0.049991
0.049962651 0.050011005 0.050030138 0.05004704 0.05000852 0.049934004
0.049908519 0.049997006 0.050018247 0.049976002 0.050038658 0.050031111
0.049903184 0.049905363 0.050050221 0.049995009 0.04998447 0.050058085
0.050109662 0.050010007 0.050007001 0.050132092 0.050038021 0.049958006
0.049896155 0.050015006 0.050068006 0.049899004 0.049935386 0.050076019
0.049955007 0.050057147 0.049995054 0.049995054 0.050004117 0.049966998
0.049972013 0.049895059 0.050000027 0.050002061 0.049839191 0.050015487
0.050063349 0.050051332 0.04999312 0.050107475 0.050003588 0.049905825
0.049956877 0.049846902 0.049885899 0.049912531 0.050003741 0.050075252
0.050000675 0.04995485 0.050063547 0.050070181 0.049973499 0.050023161
0.050094139 0.049869776 0.049893677 0.050125744 0.049967822 0.049921438
0.049975459 0.050020605 0.050032303 0.049975649 0.050001305 0.050019808
0.04994607 0.050025526 0.050047264 0.049959633 0.049979467 0.049969759
0.050004411 0.050159674 0.050070163 0.049828969 0.049942445 0.050046168
0.049970716 0.049946655 0.049907174 0.050055511 0.05000741 0.049943548
0.050076958 0.049987115 0.049881916 0.050034385 0.050074 0.049961276
0.049947038 0.050046284 0.050030492 0.049957532 0.050037455 0.050075497
0.050008684 0.050038829 0.05006773 0.049887195 0.050028734 0.050094709
0.049952738 0.049950909 0.04997994 0.050004907 0.050058756 0.050177053
0.04999955 0.049954392 0.050062753 0.050029334 0.050000861 0.050008535
0.050044999 0.050117269 0.050043188 0.049942262 0.050069768 0.050007761
0.050105959 0.050000537 0.049955968 0.049971282 0.049992025 0.050061461
0.050010063 0.049966533 0.049962129 0.050025128 0.050024103 0.049946081
0.049945503 0.050062664 0.049923442 0.049973194 0.050128084 0.049990006
0.050065074 0.049990084 0.050034367 0.050129998 0.050054066 0.050094999
0.050002072 0.05001704 0.049928013 0.049979072 0.050023012 0.049837001
0.049936023 0.050140999 0.04996701 0.050044 0.050009001 0.050009001
0.049977053 0.050035998 0.049913008 0.049873088 0.049961012 0.049941372
0.049830079 0.049973227 0.050059352 0.050044492 0.049992632 0.050032698
0.0499552 0.049883369 0.049966455 0.049860105 0.049865257 0.049964111
0.050014857 0.050036583 0.050005399 0.049982868 0.050016217 0.050061803
0.049976617 0.049943585 0.05003963 0.049863387 0.049893718 0.050177071
0.050003238 0.049896967 0.049976293 0.050004758 0.050018672 0.049998216
0.050007161 0.049977146 0.049987808 0.04998944 0.050015733 0.050045818
0.049964126 0.049937632 0.049959164 0.050162807 0.050098106 0.049811773
0.049943075 0.050036043 0.049946219 0.049990892 0.049846549 0.050020151
0.049990565 0.049983479 0.05010077 0.049998101 0.049928185 0.049972061
0.050099425 0.049919154 0.04994712 0.050045237 0.050071619 0.049999446
0.049934629 0.050053325 0.049991403 0.050068814 0.049997579 0.049868852
0.05006247 0.050052285 0.050003275 0.050030198 0.049996346 0.049981374
0.050085425 0.050197206 0.050011296 0.049938641 0.050072949 0.050050393
0.050087091 0.050032549 0.050025348 0.050159492 0.050063763 0.049972165
0.050095908 0.050058551 0.05005464 0.050015215 0.050004639 0.050005008
0.049986068 0.050063096 0.050005045 0.049942642 0.050019346 0.050001264
0.05002768 0.050058242 0.049882382 0.050050456 0.05001837 0.050024103
0.050154153 0.050002094 0.05011218 0.04996001 0.050017197 0.050138999
0.050044168 0.050098021 0.049971122 0.050002079 0.050041247 0.050009068
0.049966078 0.049863003 0.049957 0.050086007 0.049974121 0.050061036
0.050022073 0.050022073 0.049939044 0.050016034 0.049873251 0.04988116
0.049906235 0.049937546 0.049892113 0.049907207 0.049997453 0.049975764
0.049971268 0.050004266 0.049908578 0.049876817 0.049994681 0.049874447
0.049887642 0.049974218 0.049943618 0.04998653 0.049968697 0.04998539
0.049964674 0.050017487 0.050002683 0.049915012 0.050015006 0.049868461
0.049920678 0.050167672 0.049996555 0.049910393 0.050002072 0.049980845
0.049994186 0.050032757 0.050014697 0.049961545 0.050007869 0.049952347
0.050002664 0.050120316 0.049995892 0.049968403 0.049905837 0.050068703
0.050078835 0.04984745 0.049921028 0.050040461 0.049980097 0.050010625
0.049826059 0.049959812 0.0499922 0.050009824 0.050028663 0.049963787
0.05002502 0.049938012 0.050070964 0.049919251 0.049936846 0.050021671
0.050092801 0.050044544 0.049893256 0.050026171 0.049979877 0.050023608
0.049950458 0.049903784 0.050053865 0.049994469 0.050094143 0.050080802
0.049983617 0.050002243 0.050074682 0.050180919 0.050055236 0.049974296
0.050086059 0.050104626 0.05015273 0.05008129 0.050040305 0.050183289
0.050074212 0.050057583 0.050119769 0.050060723 0.050009191 0.050021991
0.050098095 0.05005341 0.04997649 0.05006972 0.050080173 0.049925484
0.050043024 0.049981374 0.050031368 0.050159246 0.049897484 0.050055105
0.050043292 0.050041132 0.050125185 0.049987268 0.050127238 0.049988218
0.050068118 0.050138012 0.050006188 0.050109092 0.049976133 0.049962059
0.050102241 0.050044 0.049931102 0.049922012 0.049980003 0.050021
0.050011069 0.050061043 0.05003811 0.05003811 0.049892072 0.049946092
0.049849555 0.049869202 0.049867809 0.049973506 0.049931463 0.049854506
0.04993479 0.049898092 0.049920518 0.049987901 0.049887914 0.04987336
0.050011143 0.049870234 0.049897436 0.049968306 0.049864519 0.04991737
0.049934048 0.049985189 0.049931947 0.049966764 0.050019868 0.049918991
0.050005026 0.04989418 0.049956139 0.050104626 0.049959358 0.049929664
0.050026927 0.049997155 0.04995035 0.050043426 0.050027546 0.049966071
0.049998373 0.049940567 0.05001143 0.050115053 0.050046653 0.050028123
0.049867112 0.049998701 0.050055329 0.049874399 0.049880698 0.050031684
0.05000807 0.049991012 0.049847111 0.049929168 0.05000231 0.05001941
0.049930457 0.049910381 0.050093178 0.049919832 0.050025798 0.049938705
0.049918346 0.050004665 0.05007429 0.050053004 0.049901027 0.049968511
0.049977027 0.049989637 0.049950488 0.049949199 0.050041102 0.04999008
0.050147332 0.050115317 0.049980219 0.050033707 0.05005477 0.050166242
0.05010986 0.050067496 0.050111566 0.05014633 0.05016882 0.050165057
0.050086595 0.050189391 0.050106511 0.050136801 0.050157201 0.050031707
0.050024722 0.050032753 0.050175421 0.050074849 0.049946219 0.050104279
0.050197445 0.049969696 0.050040685 0.049957681 0.050055925 0.050207339
0.049940623 0.05009108 0.050009254 0.050059237 0.050099131 0.049991254
0.050123073 0.050013293 0.050127055 0.050116055 0.049983155 0.050118081
0.049996112 0.049960043 0.050102074 0.050067067 0.049943052 0.049981005
0.049987011 0.049982008 0.050048999 0.050038002 0.050058037 0.050058037
0.049849063 0.04986608 0.049829543 0.049825188 0.049836036 0.049992412
0.049904127 0.049832992 0.049897265 0.049864493 0.049867392 0.049954213
0.049862124 0.049852889 0.050008651 0.049849078 0.049880266 0.049970698
0.049847431 0.04984856 0.049908645 0.049990278 0.04992659 0.049941398
0.049988762 0.04990571 0.049999535 0.049939875 0.04995745 0.050018288
0.049926136 0.049938966 0.050039001 0.050027851 0.049906526 0.050023902
0.05004251 0.04997671 0.04997706 0.049957454 0.050028317 0.050049718
0.050065998 0.050074805 0.049876995 0.049983907 0.05004504 0.049885467
0.049854644 0.050007869 0.049975194 0.049941853 0.049891185 0.049942456
0.049987335 0.0500037 0.049878471 0.049867995 0.050108857 0.049915686
0.049974106 0.049954798 0.049891084 0.049987234 0.050031196 0.050025601
0.049922008 0.049901225 0.049982805 0.050013002 0.049974475 0.049967565
0.050068006 0.050028611 0.050132055 0.050144184 0.050017316 0.05007584
0.05005331 0.050174214 0.050146416 0.050158162 0.050147634 0.050152812
0.050170753 0.050251555 0.050137315 0.050199661 0.05017861 0.050189264
0.050202597 0.050016224 0.050094355 0.050052498 0.050194774 0.05007555
0.049928669 0.050159354 0.050292764 0.050049298 0.050038744 0.049947191
0.050097715 0.050218605 0.049989711 0.050143193 0.049978256 0.050087284
0.0501181 0.050021134 0.050112013 0.050003197 0.050163057 0.050092079
0.049991056 0.050128032 0.050001036 0.049984023 0.050084002 0.050064087
0.049985021 0.050025001 0.049980007 0.049972009 0.050057013 0.050016019
0.050076 0.050076 0.049817037 0.049793046 0.049804371 0.049779169
0.049803689 0.049952384 0.049828555 0.049827315 0.049867634 0.049878843
0.04983839 0.049901225 0.049823217 0.049819037 0.049996797 0.049816553
0.04984355 0.049957532 0.049881458 0.0498177 0.049879745 0.049986489
0.049926046 0.049952906 0.049926616 0.049868565 0.049988732 0.049977977
0.049925279 0.049936127 0.049914651 0.049943179 0.05003158 0.0500357
0.049886938 0.04998697 0.05004444 0.049996428 0.049958657 0.049990926
0.05005151 0.049968012 0.050043173 0.050092164 0.049927056 0.049994301
0.050030876 0.049898159 0.049867202 0.049992267 0.049913425 0.049882349
0.04993153 0.049967244 0.049942955 0.049966265 0.049873915 0.049841423
0.050064977 0.0499194 0.049929351 0.049950022 0.049862247 0.04995976
0.049989879 0.049983118 0.049926855 0.049866769 0.049989723 0.05005252
0.050007388 0.049975973 0.050122704 0.050075334 0.050080851 0.050159413
0.050082751 0.050128412 0.050087411 0.050205149 0.050163604 0.05021267
0.050184708 0.050135486 0.050189983 0.050313301 0.05020221 0.050234761
0.050267331 0.050212279 0.050242644 0.05005151 0.050178148 0.050084762
0.050170217 0.050090197 0.049962539 0.050197918 0.050324075 0.050119929
0.05005217 0.049967561 0.050149761 0.050211854 0.050044868 0.050197318
0.049981397 0.050115194 0.050153177 0.050055098 0.050103042 0.049973119
0.050181109 0.050115079 0.050015002 0.050133016 0.050005004 0.050005998
0.050057005 0.050037052 0.050022017 0.050056003 0.049968999 0.049986009
0.050037023 0.050017063 0.050086048 0.050086048 0.049795028 0.04973403
0.04976723 0.04975817 0.049767349 0.049859423 0.049740519 0.049819339
0.049832743 0.049893923 0.049830768 0.049853113 0.049788393 0.049790841
0.049966756 0.049784895 0.049800318 0.049901012 0.049917262 0.04982537
0.049845975 0.049969174 0.049895745 0.049976613 0.049876358 0.049833789
0.049969122 0.049977597 0.049891971 0.049875647 0.049921554 0.049948245
0.050008558 0.05001422 0.049893606 0.049943853 0.050022256 0.05002217
0.049955416 0.050023105 0.050079376 0.049912218 0.050006755 0.050088409
0.049978115 0.049994685 0.050004449 0.049923792 0.049907222 0.049994104
0.049874149 0.049834237 0.049950417 0.049967989 0.049890261 0.049917053
0.049877677 0.049821436 0.04997766 0.04990983 0.049909014 0.049922425
0.04983386 0.049920246 0.049960073 0.049948432 0.049915481 0.049871836
0.049993765 0.050065961 0.050034687 0.050000265 0.050167847 0.050112549
0.050052375 0.05015485 0.050141133 0.050177623 0.050156772 0.050251983
0.050176159 0.050246283 0.050213512 0.050135374 0.050234526 0.050338972
0.050287858 0.050299715 0.050346009 0.050227582 0.050268151 0.050122987
0.050242033 0.050132629 0.050153662 0.050144531 0.050052226 0.05020351
0.050293263 0.050162192 0.05008566 0.050012521 0.050200976 0.050198987
0.050106023 0.050236408 0.050020687 0.050146118 0.050164364 0.050084125
0.050106194 0.049961101 0.05018812 0.050177094 0.050039999 0.050131019
0.050030004 0.050025009 0.050020006 0.049999014 0.050036024 0.050068013
0.049973018 0.050018005 0.050005011 0.05003906 0.05008607 0.05008607
0.049777031 0.049694035 0.049726132 0.049747184 0.049725249 0.049752526
0.049669288 0.049797211 0.049797721 0.04987077 0.0498254 0.049826022
0.04975776 0.049776725 0.049908988 0.049767457 0.049759187 0.049810603
0.049928587 0.0498426 0.049818493 0.049936313 0.049831767 0.049984634
0.049858991 0.049821001 0.049943063 0.049930237 0.04987628 0.04984691
0.049937833 0.049946293 0.049983207 0.049983241 0.049910322 0.049905773
0.049983662 0.050039448 0.049966533 0.050040916 0.050101817 0.049902599
0.049985386 0.050078951 0.050012834 0.049981717 0.049979482 0.049960483
0.04995285 0.049996782 0.049863119 0.0498183 0.049942125 0.049931083
0.049846385 0.049863782 0.049861226 0.049805101 0.049881022 0.049874462
0.049910583 0.049883623 0.049806263 0.049875278 0.049929876 0.049930688
0.049895853 0.049887426 0.049994193 0.050055102 0.050043162 0.050042842
0.050185602 0.050142631 0.050075173 0.050133292 0.050173577 0.050220199
0.050239757 0.050309904 0.050203383 0.050280169 0.050235629 0.050180398
0.05030147 0.05034291 0.050381094 0.050377309 0.050406221 0.050263561
0.050286423 0.050191708 0.050280761 0.050195675 0.05017598 0.050228607
0.050165158 0.050191484 0.05024432 0.050186064 0.050135817 0.050057195
0.050230194 0.050202064 0.050158978 0.050253537 0.050076853 0.050182126
0.050154485 0.050104156 0.050120365 0.050000101 0.050184052 0.05022113
0.050065011 0.05011804 0.050077047 0.050047006 0.049992003 0.049966998
0.050026033 0.050062023 0.04999505 0.05006 0.049973998 0.050065018
0.050080027 0.050080027 0.049753029 0.049673058 0.049688075 0.049718224
0.049673308 0.049660649 0.04962115 0.049761128 0.049763747 0.049813673
0.049808905 0.049811106 0.049724255 0.04976292 0.04982676 0.049767137
0.049720645 0.049719341 0.049915697 0.049838077 0.049798362 0.049891692
0.049762014 0.04996581 0.049864918 0.049826737 0.04991059 0.0498554
0.049868483 0.049846053 0.049956184 0.049931381 0.049966998 0.049962021
0.049921699 0.049883734 0.049944267 0.050029967 0.049985405 0.050050329
0.050103921 0.049933899 0.049989238 0.050070394 0.050039493 0.049967162
0.04997094 0.049999241 0.049992241 0.049979925 0.04985531 0.049831647
0.049911492 0.049870268 0.049813334 0.049803674 0.049821462 0.049796842
0.04980395 0.0498202 0.049906217 0.04983329 0.049783982 0.049831659
0.049888659 0.049917568 0.049871981 0.04988854 0.049985636 0.050034009
0.050027322 0.050083026 0.050185177 0.050170846 0.050139423 0.050109778
0.050190527 0.050274849 0.050318189 0.050378419 0.050252322 0.050314169
0.050256565 0.050268229 0.050385725 0.050356064 0.050469343 0.050443444
0.050449133 0.050334886 0.050316043 0.050232369 0.050311126 0.05026833
0.050232101 0.050312661 0.050265487 0.050186832 0.050223332 0.050216798
0.050197586 0.050088879 0.050224159 0.050230119 0.050199769 0.050260633
0.050136659 0.050218187 0.050151419 0.050114136 0.050132371 0.050081093
0.05017101 0.050219152 0.050091039 0.050094053 0.050126135 0.050069999
0.049985055 0.049957 0.050002053 0.05005502 0.050029047 0.050095007
0.049955003 0.050081 0.050076999 0.050076999 0.049717035 0.049665123
0.049654052 0.049659319 0.049620453 0.049587756 0.049589165 0.049715146
0.049726885 0.0497468 0.049780153 0.049792439 0.049681745 0.049729452
0.049740996 0.049773667 0.049685918 0.049656987 0.049884226 0.049804498
0.049783673 0.049842075 0.049722385 0.049930934 0.049873658 0.049833175
0.049871493 0.049783196 0.049854036 0.049859058 0.049972352 0.049909435
0.049957328 0.049954921 0.049926523 0.049885731 0.049923044 0.04999207
0.04999923 0.050058577 0.050082907 0.04997877 0.050008927 0.050067663
0.050071977 0.0499622 0.049977936 0.050034747 0.05001951 0.049944852
0.049834087 0.049852017 0.049868509 0.049809933 0.049784977 0.04974338
0.049770068 0.049794104 0.049752511 0.049759477 0.049871024 0.049768489
0.049762867 0.049795914 0.049838517 0.04989519 0.049843043 0.0498675
0.049961336 0.050008044 0.049997725 0.050105646 0.050177835 0.050201666
0.050213795 0.050104417 0.050212033 0.050357658 0.05038989 0.05044781
0.050326899 0.050344117 0.05028097 0.050369445 0.050475653 0.05040412
0.050551545 0.050487593 0.0504889 0.050439831 0.050370887 0.050254527
0.050344028 0.05034234 0.050298061 0.050371729 0.050343014 0.050209228
0.050246265 0.05027156 0.050262239 0.050113745 0.050191831 0.050267071
0.05023754 0.050277565 0.050188325 0.050239224 0.05016828 0.050119106
0.050139237 0.050163072 0.050155006 0.050192114 0.050117046 0.050064046
0.05015415 0.05008601 0.04999911 0.049968001 0.049978066 0.050063007
0.050061017 0.050107006 0.049955018 0.050083019 0.050079022 0.050079022
0.049667049 0.049659204 0.049620084 0.049579464 0.049579654 0.049529821
0.049560301 0.049665239 0.049681138 0.049686056 0.049740311 0.049759995
0.049634311 0.049667202 0.049669299 0.049767099 0.049650922 0.04962454
0.04983563 0.04975285 0.049773432 0.049799364 0.049725067 0.049894921
0.049864244 0.049829025 0.049825657 0.049736205 0.049835116 0.049874961
0.049985416 0.04989158 0.049947202 0.049957126 0.049930133 0.049910951
0.049923811 0.049942475 0.050003983 0.050065115 0.050054044 0.050021108
0.050036218 0.050068706 0.050108176 0.049970306 0.049991682 0.050061557
0.050037742 0.049909081 0.049801115 0.049856313 0.049827505 0.049765922
0.049753133 0.049685713 0.04971109 0.049785875 0.049714074 0.049697921
0.049800836 0.049688775 0.04973511 0.049761802 0.049785156 0.049854547
0.049810227 0.049829323 0.049920846 0.049975857 0.049967989 0.050110292
0.050174102 0.050228752 0.050275356 0.050137244 0.050245393 0.050457448
0.050469726 0.050512612 0.050418522 0.050380919 0.050323661 0.050459657
0.05056363 0.050485648 0.050630197 0.050523356 0.050538287 0.050553869
0.050449144 0.050287113 0.050384525 0.05040979 0.050350782 0.050401654
0.050405245 0.050262321 0.050297987 0.050343361 0.050317988 0.05015476
0.050163426 0.05028889 0.050286319 0.050315354 0.050222099 0.050237186
0.050194155 0.050129078 0.050149102 0.050210025 0.050148021 0.050179042
0.05013302 0.050039027 0.050155055 0.050091039 0.050021071 0.049984004
0.049968056 0.050091002 0.050082006 0.050098002 0.049973022 0.050078042
0.050080042 0.050080042 0.049608089 0.049640249 0.049583245 0.049494606
0.049555965 0.049480867 0.049526528 0.049610402 0.049628578 0.049632352
0.049687732 0.04971268 0.049584169 0.049591128 0.049614437 0.049730729
0.04961323 0.049605347 0.049770005 0.049704302 0.049766567 0.049760833
0.049753387 0.049870804 0.04982926 0.04981393 0.049781248 0.049719993
0.049824435 0.049888115 0.049992036 0.049881164 0.049933422 0.049963787
0.049933176 0.049949642 0.049940519 0.049905669 0.050006665 0.050063215
0.05003817 0.05005936 0.050067324 0.050068866 0.05013635 0.049987774
0.050009385 0.050078757 0.050043959 0.049888778 0.049771626 0.049836598
0.049796838 0.049741589 0.049709849 0.049631923 0.049641874 0.04976159
0.049678925 0.049631719 0.049709268 0.049611785 0.04969595 0.049717899
0.04972617 0.049794637 0.049771886 0.049780972 0.049873434 0.049939845
0.0499436 0.050106522 0.050177943 0.050246276 0.050321952 0.050212167
0.050287642 0.050544556 0.050565232 0.050577663 0.05051814 0.050439514
0.050400563 0.050538927 0.050640699 0.050578568 0.050701015 0.050575659
0.050613038 0.050657172 0.050535422 0.050355408 0.050431654 0.050470933
0.050383143 0.050417256 0.050464742 0.050337039 0.050355434 0.050406132
0.05035381 0.050225772 0.050164144 0.050295558 0.050345108 0.05035815
0.05023801 0.050217099 0.050214056 0.050148044 0.050173011 0.050216999
0.050145026 0.050195999 0.050129998 0.050032012 0.050138 0.050081052
0.050043005 0.04998301 0.049977019 0.050122 0.050092999 0.050078005
0.049997009 0.050071035 0.050076019 0.050076019 0.049546171 0.049595229
0.049538609 0.049420699 0.049538411 0.049445003 0.049484905 0.049546696
0.04957531 0.049579758 0.049622629 0.049651548 0.04953064 0.049524348
0.049568519 0.04966585 0.049569506 0.049578886 0.049698077 0.049675085
0.049758017 0.049716979 0.049781587 0.04985638 0.049775451 0.049792249
0.049747705 0.049731787 0.049832832 0.049892198 0.049989045 0.049881
0.049923986 0.04997332 0.049937345 0.049986098 0.049964841 0.049899831
0.050016321 0.050052937 0.050044965 0.050101124 0.050098877 0.050069649
0.050155837 0.050018631 0.050035115 0.050084136 0.050036114 0.049887821
0.049757097 0.04980702 0.049781401 0.049725436 0.049652405 0.049572214
0.049564663 0.049715154 0.049639892 0.049554717 0.049608134 0.049551453
0.049639843 0.04965204 0.049652025 0.049716521 0.049729224 0.049727269
0.049830325 0.049911845 0.049931452 0.050106358 0.050187327 0.050252661
0.050365016 0.05032184 0.05033619 0.050599206 0.050669808 0.050658178
0.050619222 0.050526835 0.05052169 0.050618876 0.050701592 0.050665069
0.050761279 0.050658494 0.050712075 0.050743323 0.050621118 0.050465748
0.050489563 0.050531991 0.050404184 0.05043947 0.050520632 0.050411515
0.050406761 0.050439805 0.05037557 0.050321564 0.050203018 0.050303187
0.050402001 0.050381027 0.050248008 0.050196011 0.050228 0.050168004
0.050213017 0.050197039 0.050138004 0.050228022 0.050110016 0.050046001
0.050119068 0.050060023 0.050060026 0.049964007 0.050002001 0.050141003
0.050095007 0.050060004 0.050014999 0.050066013 0.050064001 0.050064001
0.049482275 0.049520195 0.049480107 0.049359795 0.049510974 0.049417377
0.049435478 0.049469274 0.049520425 0.049524587 0.049544077 0.049578872
0.049470782 0.049484078 0.049526975 0.049583685 0.049513709 0.049533371
0.049631458 0.04966341 0.049737044 0.049659204 0.04978577 0.049844097
0.049721241 0.049775038 0.049733419 0.049756747 0.049853031 0.049882993
0.049971122 0.049890824 0.049927626 0.049994331 0.049947169 0.050014548
0.049995914 0.049931884 0.050039623 0.050045431 0.050069772 0.050148852
0.050129388 0.050075281 0.050179835 0.050069693 0.050073039 0.050082605
0.050012186 0.049898818 0.049757853 0.049783532 0.049773648 0.04970469
0.04959004 0.049507458 0.049486291 0.049647182 0.049592555 0.049463656
0.049499776 0.049505994 0.049564257 0.04955855 0.049558606 0.049624879
0.049686287 0.049673833 0.049794238 0.049900979 0.049934968 0.050112121
0.050196458 0.050256528 0.050418671 0.050450154 0.050401628 0.050623581
0.050765295 0.050759174 0.050717354 0.050641567 0.05067816 0.050710209
0.05075369 0.050745398 0.050816331 0.050768737 0.050825585 0.050818551
0.050702047 0.050606187 0.050568413 0.050603066 0.050429124 0.05048243
0.050564554 0.050469868 0.05045421 0.050444368 0.050399218 0.050421171
0.050270014 0.050331 0.050438166 0.050374012 0.050262094 0.050193053
0.05023513 0.05018406 0.050251182 0.050163154 0.050126042 0.050250087
0.050078072 0.050073013 0.050103184 0.050042 0.050067127 0.049940001
0.050028056 0.05014002 0.050087035 0.050050005 0.050017014 0.050065
0.050046016 0.050046016 0.049411368 0.049425188 0.049404502 0.049304944
0.049454547 0.049391117 0.049382299 0.049379244 0.049456824 0.049467139
0.049459971 0.049496964 0.049406372 0.049465537 0.049487315 0.0494994
0.049447261 0.049470868 0.049577054 0.049654543 0.049697157 0.049587704
0.049754895 0.049820032 0.049681786 0.049765229 0.049736679 0.049783155
0.049868375 0.049862176 0.049940359 0.049910028 0.049950413 0.050032318
0.049972884 0.050036263 0.050035588 0.049989972 0.050074875 0.050055001
0.050105754 0.050199777 0.050164953 0.050096553 0.050222393 0.050145965
0.050125446 0.050082255 0.049980327 0.049910504 0.04976698 0.049775079
0.049769137 0.049672153 0.049535822 0.0494463 0.04941858 0.049561445
0.049523614 0.049361501 0.049382549 0.049453504 0.049461499 0.04944155
0.049450722 0.049520146 0.049646631 0.049627494 0.049764052 0.049905263
0.04995098 0.05012178 0.050204493 0.050274 0.050487719 0.050585125
0.050498519 0.050647639 0.050844941 0.050872784 0.050819535 0.050778627
0.050846104 0.050812148 0.050814327 0.050840359 0.050878126 0.050890185
0.05093373 0.050895672 0.050779406 0.050757524 0.050677378 0.050690155
0.050476328 0.050540473 0.050601032 0.050501242 0.050508998 0.050437022
0.050438002 0.050505016 0.05034323 0.05038432 0.050439674 0.050347257
0.050284386 0.050214455 0.050234634 0.050188452 0.050261594 0.050123349
0.050109278 0.050249223 0.050048199 0.050099105 0.050091278 0.050037071
0.050064284 0.049925059 0.0500402 0.050124068 0.050070092 0.050039019
0.049999036 0.050064001 0.050025031 0.050025031 0.04932943 0.049325254
0.049314614 0.049241204 0.049360055 0.049351234 0.049327377 0.049283706
0.049375389 0.049402554 0.049372189 0.049411967 0.049342111 0.049446844
0.049446851 0.049425241 0.049373765 0.049401384 0.049534097 0.049630824
0.049637768 0.049512602 0.049685039 0.049776651 0.049666703 0.04976166
0.049749449 0.049803484 0.049866784 0.049837966 0.049902216 0.049935233
0.049989812 0.050083317 0.050023556 0.050063476 0.050083429 0.050058454
0.050116166 0.050092082 0.050152116 0.050256751 0.050217491 0.050141167
0.050284397 0.050239719 0.050189707 0.05009434 0.049956847 0.049918901
0.049776468 0.049779471 0.049769048 0.049637321 0.049499594 0.049397651
0.049362499 0.04946227 0.049420189 0.049250428 0.049256593 0.049369045
0.049331449 0.049309697 0.049340963 0.049406644 0.049599927 0.049591508
0.049738068 0.049910955 0.049969431 0.050129078 0.050219119 0.050319921
0.050565984 0.050714135 0.050634135 0.050705578 0.050918099 0.050986033
0.050929938 0.050934013 0.051005643 0.050924189 0.050907478 0.050969671
0.050962143 0.051003918 0.051025704 0.050980352 0.050856639 0.050903473
0.050818559 0.050794363 0.050552003 0.050604008 0.050634149 0.050520014
0.050569326 0.050445229 0.050487507 0.050561618 0.050411955 0.050443437
0.050416589 0.050314095 0.050313089 0.050252452 0.050232623 0.050179444
0.050227333 0.050083745 0.050090838 0.050224558 0.050028492 0.050106458
0.050079424 0.050047368 0.05005553 0.049916279 0.050034434 0.050096195
0.050045177 0.050015077 0.049961038 0.050057001 0.050005008 0.050005008
0.049233451 0.049234398 0.049216546 0.049157593 0.049231466 0.049288552
0.049265604 0.049187653 0.049273986 0.04932661 0.049284704 0.049329698
0.049280912 0.049402017 0.049398672 0.049363505 0.049302749 0.049335018
0.0494981 0.04957971 0.049563166 0.049447034 0.049590223 0.049715985
0.049670309 0.049760286 0.049758427 0.049814947 0.049846735 0.049819935
0.049871992 0.049964387 0.050039247 0.050136819 0.050094869 0.050106373
0.050138265 0.050123673 0.050161149 0.050158795 0.050216958 0.050327584
0.050295711 0.050211042 0.050352909 0.050338306 0.050268099 0.050126143
0.049959034 0.049929231 0.04978912 0.049794443 0.049778067 0.049606871
0.049482204 0.049367674 0.049311265 0.049350165 0.049276553 0.049135409
0.04912426 0.049239542 0.049174756 0.049169395 0.049235404 0.04928647
0.049531352 0.049555678 0.049716402 0.049906824 0.049975734 0.050137453
0.050256286 0.050402209 0.050647069 0.050834972 0.050799452 0.050819013
0.051007941 0.051096141 0.051054727 0.05110297 0.051152889 0.0510525
0.051047895 0.051142275 0.051072143 0.051105324 0.051102687 0.051069546
0.050938137 0.051037107 0.050986059 0.050907001 0.050649222 0.050674386
0.050668862 0.050554775 0.050627463 0.050482512 0.050538231 0.050593305
0.050473627 0.050481424 0.050388046 0.050284911 0.050333485 0.050293118
0.050234221 0.050156202 0.050154503 0.050048631 0.050074909 0.050183333
0.050022189 0.050089322 0.050062783 0.050069042 0.050035946 0.049906742
0.050009742 0.050053459 0.050016265 0.049970236 0.049912017 0.050037034
0.049986005 0.049986005 0.049126435 0.049150608 0.049111523 0.049053177
0.049082842 0.049198855 0.049187936 0.049093939 0.049161624 0.04923474
0.049193457 0.049249697 0.049216118 0.049319088 0.049334537 0.049304292
0.049239464 0.049279958 0.049460512 0.049501594 0.049480151 0.04939732
0.049493551 0.049647424 0.049675252 0.049753282 0.049751386 0.049817365
0.04981675 0.04981016 0.049861398 0.049993724 0.050086435 0.050182283
0.050175406 0.050166946 0.050194338 0.050180867 0.05020941 0.05024796
0.050310038 0.050422098 0.050401561 0.05030448 0.050416138 0.050426763
0.050358601 0.050185706 0.049999978 0.049958728 0.049815673 0.049823835
0.049797758 0.049586829 0.049468476 0.049352665 0.049258053 0.049224418
0.049100764 0.04901306 0.0489881 0.04906407 0.04900194 0.049021386
0.049132243 0.049160592 0.049423505 0.049506605 0.049701922 0.049896628
0.0499667 0.05014931 0.050328508 0.050522972 0.050729331 0.050950862