# vtk DataFile Version 3.0
axinsert(project(???,0,L2),2)
ASCII
DATASET STRUCTURED_POINTS
DIMENSIONS 256 1 1
ORIGIN 0 0 0
SPACING 1 1 1
POINT_DATA 256
SCALARS nrrd79821 float
LOOKUP_TABLE default
0 0 0 0 0 0 0 0 0 0 0 0 0 0 0 0 0 0 0 0 0 0 0 0 0 0 0 0 0 2.6457512e-06
1.9261361e-05 0.00013606249 0.00095607166 0.0063501578 0.03913885
0.21587971 0.97758979 2.2971594 1.4379599 1.5382259 1.3550609 0.94202578
1.1589748 1.5648804 1.8229297 1.7570839 1.524323 1.8026091 1.7559371
1.6472534 2.0416343 2.4772799 2.0957496 1.6257178 1.2956331 1.1041306
0.99900085 0.93675369 0.89543396 0.86550343 0.84235734 0.82336766
0.80707431 0.79257399 0.77899677 0.76619065 0.75406158 0.74256945
0.73165059 0.72122526 0.71123189 0.70165801 0.69250667 0.68379056
0.67558575 0.66753614 0.65998644 0.65266353 0.64564973 0.63892049
0.63243854 0.62616509 0.61996979 0.61361969 0.60753292 0.60251135
0.59818703 0.59454286 0.59115529 0.58775002 0.58352602 0.57921684
0.57494044 0.57075614 0.56701237 0.56374711 0.5609706 0.55844122 0.55554956
0.55219579 0.54800981 0.54276276 0.53687507 0.53130281 0.52611911
0.52138233 0.51777148 0.51473069 0.51245207 0.51120555 0.51129305
0.51325059 0.51867503 0.52606195 0.53185266 0.53180617 0.52581805
0.51289958 0.49717504 0.47969735 0.47055101 0.46105269 0.48824778
0.56231928 0.61221361 0.63344979 0.64921808 0.67575675 0.67575675 0.6716432
0.64707905 0.61857533 0.61314034 0.6395089 0.68143541 0.65843588 0.58007723
0.48241138 0.42769563 0.39005083 0.35835257 0.32905722 0.29945931
0.27971864 0.27664134 0.30411485 0.36168793 0.41645345 0.43178079
0.42458633 0.39802319 0.34455213 0.27955914 0.22677444 0.20247023
0.18959078 0.18373743 0.19519421 0.23440249 0.30263829 0.36537528
0.39258638 0.40452254 0.40796781 0.41097906 0.42526326 0.45121011 0.4864943
0.5280689 0.57476121 0.62466156 0.67565775 0.7254197 0.77218652 0.81457275
0.84985709 0.87872481 0.89921844 0.90843827 0.90572196 0.89135212
0.86650497 0.83641088 0.80380291 0.77093881 0.7397635 0.71070725 0.68322635
0.65097439 0.60624242 0.54626292 0.48580599 0.4329288 0.38343415 0.33270109
0.27839622 0.21454635 0.13292482 0.0542414 0.0095684854 0.00086085423
7.1203933e-05 4.9999999e-06 0 0 0 0 0 0 0 0 0 0 0 0 0 0 0 0 0 0 0 0 0 0 0 0
0 0 0 0 0 0 0 0 0 0 0 0 0 0 0 0 0 0 0 0 0 0 0 0 0 0 0 0 0
