# vtk DataFile Version 3.0
axinsert(project(permute(???,2,0,1),0,L2),2)
ASCII
DATASET STRUCTURED_POINTS
DIMENSIONS 128 256 1
ORIGIN 0 0 0
SPACING 1 1 1
POINT_DATA 32768
SCALARS nrrd26345 float
LOOKUP_TABLE default
0.050069012 0.050003167 0.049963046 0.050019097 0.050022047 0.049987216
0.04996502 0.05002911 0.050022289 0.049985085 0.050021 0.049916264
0.049962841 0.050046001 0.050011668 0.050030056 0.050034169 0.049984001
0.050038323 0.049999014 0.049979258 0.050018031 0.049978066 0.049933024
0.049959175 0.050046828 0.050083049 0.050008018 0.049917039 0.049972758
0.050027084 0.049983151 0.050025068 0.050011013 0.050012127 0.049985006
0.049974371 0.05002746 0.049945001 0.049943119 0.050067618 0.050105046
0.050034039 0.049975004 0.049964007 0.050023466 0.050068155 0.049978312
0.049918022 0.049936004 0.050039288 0.0500593 0.049964007 0.05003304
0.050055001 0.049955525 0.049957074 0.050085124 0.050066177 0.049961835
0.049942013 0.049988076 0.049982004 0.049967013 0.049980048 0.050020006
0.049986999 0.049973045 0.049954042 0.050067395 0.050033562 0.049935035
0.050016019 0.050022021 0.049993012 0.049994022 0.05006903 0.050033599
0.049963161 0.050025064 0.050003324 0.049958285 0.050008085 0.050039105
0.049987655 0.049929023 0.049990263 0.050018001 0.049967326 0.049956139
0.050042056 0.050032534 0.04998523 0.049988437 0.049958169 0.049996004
0.049994055 0.050020002 0.050036013 0.050048187 0.050018001 0.04997981
0.049960062 0.049999408 0.049990065 0.050020371 0.049980134 0.050043002
0.050035428 0.050006006 0.049981464 0.049969021 0.049949005 0.050032344
0.050057244 0.049984045 0.050032005 0.04998637 0.050026216 0.05007147
0.04998837 0.049948111 0.049943052 0.049988177 0.050007071 0.050021071
0.049975082 0.049975082 0.050127011 0.049967036 0.049958013 0.050065026
0.050009031 0.049956117 0.049942061 0.050030008 0.050015036 0.049975019
0.050070167 0.049838014 0.04991303 0.049971007 0.049941126 0.050030455
0.050043497 0.050019883 0.050004076 0.049952175 0.049968917 0.050046004
0.050018899 0.049989723 0.049888276 0.050125748 0.050150111 0.049975302
0.04982565 0.049943402 0.050170176 0.049954306 0.049945544 0.050099026
0.050009154 0.049921006 0.049892325 0.050046302 0.049987476 0.049908277
0.050102349 0.050226413 0.050060187 0.049873602 0.049917657 0.050127722
0.050184082 0.04998339 0.049872007 0.049900062 0.050120998 0.050045013
0.049983248 0.050055411 0.050113473 0.050014243 0.049869005 0.050079063
0.050087113 0.049842127 0.049950071 0.050065003 0.049956057 0.049967002
0.049974225 0.049976006 0.050066013 0.049983341 0.049855154 0.050176069
0.050062194 0.049804069 0.049999028 0.050103076 0.050010242 0.049974069
0.050114322 0.050099999 0.049955577 0.050037298 0.05007023 0.049879052
0.049956154 0.050115477 0.050001241 0.049964499 0.05002236 0.049988974
0.049997535 0.049940366 0.050032962 0.049907401 0.049974166 0.050066099
0.049926318 0.049963776 0.050036188 0.050057251 0.050076365 0.049994808
0.050018452 0.050009534 0.050003186 0.050006375 0.049985297 0.049929168
0.049906377 0.050098557 0.050069485 0.050022304 0.049993455 0.04987631
0.049840111 0.0500471 0.050079066 0.049936011 0.050073009 0.049988061
0.050001007 0.050090078 0.050001144 0.049953077 0.049954001 0.049961086
0.049961016 0.050053064 0.049986035 0.049986035 0.050037 0.049961071
0.049986999 0.050017104 0.049942065 0.049967375 0.05000706 0.049955212
0.04994541 0.049907871 0.050039481 0.049954325 0.049925651 0.049825449
0.04987248 0.050008159 0.04999163 0.050013706 0.049928669 0.04995051
0.050059043 0.049999438 0.050013937 0.050148297 0.049952663 0.050105169
0.050070941 0.04990302 0.049887076 0.050014313 0.050187342 0.049993798
0.049904961 0.050092176 0.049978491 0.049907554 0.049937207 0.050014846
0.050086621 0.050029162 0.050039597 0.050109174 0.050032653 0.049865142
0.049946919 0.050140858 0.050183356 0.050058853 0.050012659 0.050011031
0.050124086 0.049984045 0.050057117 0.049985003 0.05003817 0.050133001
0.049890105 0.049938019 0.049949475 0.049918234 0.050054003 0.050077021
0.049961004 0.050056003 0.050013151 0.049975011 0.050129335 0.050026063
0.049878512 0.050078247 0.050066013 0.049853332 0.04996033 0.05010828
0.050028227 0.050001364 0.050035354 0.050172254 0.050075695 0.049962334
0.050114304 0.04997579 0.049905565 0.050044876 0.049997818 0.050084654
0.05005721 0.049963929 0.050128389 0.050037041 0.049913954 0.049834572
0.049975403 0.050142299 0.049922284 0.049922697 0.050124686 0.050052881
0.050025012 0.04992386 0.0499538 0.050076243 0.050051998 0.050001226
0.050009672 0.049854837 0.049917515 0.05006063 0.049999639 0.049998362
0.049980085 0.049839683 0.04991585 0.050014552 0.049973629 0.049900576
0.050017215 0.050013199 0.049896143 0.049984004 0.050043002 0.050007001
0.050039999 0.04999001 0.049923077 0.050010003 0.050024007 0.050024007
0.050012033 0.049954019 0.049942192 0.049985386 0.049918219 0.049943484
0.050022494 0.049886748 0.049876098 0.049821571 0.049983852 0.050000675
0.049911678 0.049809158 0.049841627 0.049986932 0.049974289 0.049933374
0.049935751 0.050004516 0.050058775 0.049960189 0.049953971 0.050144225
0.050037924 0.050059076 0.050055426 0.049932707 0.049904592 0.050068233
0.050118949 0.050024085 0.049979746 0.05004862 0.049998462 0.049963564
0.049977686 0.049985182 0.05007688 0.050094243 0.050080389 0.050052293
0.050070032 0.049962468 0.049984992 0.050072916 0.050173629 0.050108306
0.050109308 0.050083313 0.050083671 0.050026547 0.050078467 0.0500363
0.050044026 0.050061084 0.049948301 0.04992101 0.049892239 0.050061002
0.050098099 0.050024003 0.049986012 0.050112054 0.050018176 0.050029013
0.050121307 0.050039042 0.049956478 0.049962528 0.050070096 0.049965531
0.049985863 0.050081696 0.050036624 0.050020915 0.050038729 0.050185494
0.050144386 0.049972154 0.050106801 0.050114386 0.049953144 0.050006147
0.049970001 0.050058324 0.050050404 0.050013755 0.050181128 0.050136436
0.049904954 0.049936589 0.049971044 0.050132301 0.049897414 0.049908839
0.050180949 0.049981523 0.04996274 0.049965449 0.049940873 0.050059937
0.050019968 0.049989183 0.05005623 0.049891815 0.050009374 0.049984612
0.049927521 0.049963322 0.049887732 0.049835302 0.049978383 0.04999616
0.049929157 0.049857743 0.049957372 0.049974948 0.04982657 0.049934465
0.050023291 0.049956106 0.050047033 0.050040051 0.049908169 0.049986023
0.049974095 0.049974095 0.050010029 0.049881998 0.049842648 0.049993511
0.049938679 0.049868453 0.049973708 0.049830314 0.049832314 0.049807969
0.049920011 0.049973495 0.049894784 0.049822453 0.0498165 0.049926337
0.049961533 0.04987656 0.049994141 0.050039884 0.049940616 0.049904935
0.049941953 0.050068416 0.050054237 0.049997315 0.050048396 0.050031953
0.049919967 0.050073054 0.050068073 0.050027195 0.050071631 0.050041776
0.050078105 0.050055165 0.049975276 0.049998887 0.05006947 0.050095696
0.050132465 0.050048988 0.050141569 0.050101414 0.050031763 0.050050519
0.050121654 0.05011823 0.050177593 0.050129332 0.050055344 0.050046016
0.050109215 0.050162613 0.050107162 0.050001148 0.050012186 0.049958002
0.049909007 0.050155044 0.05010213 0.049996007 0.050025068 0.050151099
0.049975317 0.050027024 0.050148301 0.050066154 0.050051503 0.049949944
0.050068814 0.050046898 0.04999537 0.050063688 0.050077345 0.050026298
0.050111704 0.050119814 0.050135888 0.050066631 0.050128605 0.050165564
0.050049648 0.050042849 0.050003648 0.050021313 0.050007295 0.050067198
0.050180234 0.050204389 0.049993172 0.050059732 0.049962528 0.050106488
0.049887553 0.049962807 0.050180629 0.049908273 0.049881816 0.050016623
0.049993332 0.050030515 0.049977768 0.049968909 0.050066948 0.049940899
0.050065927 0.049910605 0.049918123 0.04993875 0.049804188 0.04980782
0.049914222 0.049981542 0.049934629 0.049813733 0.049906656 0.049888726
0.049803339 0.04990837 0.049939942 0.04987536 0.050018262 0.050055061
0.049907137 0.049980108 0.049877092 0.049877092 0.049984012 0.049758036
0.049733855 0.049969636 0.049948659 0.049769796 0.049898453 0.049801014
0.049812786 0.04983934 0.049851891 0.049908079 0.049856462 0.049820043
0.049796809 0.049879938 0.049906518 0.049809039 0.050045166 0.050050169
0.049870085 0.049873412 0.049932737 0.050006259 0.050002486 0.049904998
0.050029829 0.050122321 0.049953423 0.050072905 0.050066527 0.050060049
0.050112627 0.050032053 0.050163887 0.050149422 0.049999893 0.050054576
0.050089113 0.050106727 0.050131526 0.050052851 0.050209105 0.050226931
0.050090581 0.0500893 0.050087545 0.050128195 0.050208136 0.05013695
0.050119139 0.050052267 0.050149076 0.050255775 0.050174728 0.050043181
0.050068144 0.050025009 0.049962003 0.050194029 0.050070088 0.049982004
0.050064068 0.050204042 0.049966294 0.050027125 0.050194558 0.05009035
0.050146855 0.050017245 0.050071187 0.050046489 0.049948785 0.050073899
0.050143108 0.050067838 0.050215259 0.05007695 0.050124083 0.050191298
0.050189909 0.05012916 0.050114889 0.050100587 0.050118677 0.050033402
0.049994569 0.0500995 0.050146367 0.050205242 0.050092872 0.050147604
0.049960617 0.050086621 0.049911447 0.050038021 0.050160572 0.049890339
0.049824569 0.050059218 0.050053511 0.049991693 0.049928255 0.04995646
0.050060011 0.049953744 0.050005406 0.049863812 0.049954996 0.049899396
0.049768224 0.049768772 0.049798362 0.049944617 0.049950723 0.049772628
0.049852375 0.049826469 0.049785379 0.049871188 0.049851634 0.049800929
0.049942695 0.049994122 0.049933065 0.049968246 0.04977601 0.04977601
0.049933035 0.049636368 0.049649745 0.049876977 0.049917467 0.049677409
0.049824532 0.049790882 0.049814947 0.049870122 0.049784563 0.049824089
0.049781937 0.049778212 0.049786557 0.049860127 0.04981225 0.049710773
0.050042167 0.050059784 0.049883984 0.049878318 0.049905252 0.049987983
0.049935967 0.049818985 0.050030362 0.050152157 0.049942553 0.050084967
0.050109867 0.050131235 0.050117731 0.049999613 0.050200783 0.050231557
0.050072167 0.050118729 0.050118029 0.050149042 0.050122708 0.050090387
0.050262436 0.050301239 0.050164901 0.050150789 0.050137028 0.050160434
0.050200831 0.050139859 0.050238188 0.050059266 0.050187469 0.050345398
0.050256498 0.050144292 0.050120287 0.050089058 0.049994025 0.050225012
0.050037004 0.049981043 0.050104037 0.05024302 0.0500191 0.05009738
0.050222769 0.050122604 0.050223231 0.050117455 0.050108232 0.050002325
0.049906749 0.050108112 0.05020535 0.050144471 0.050313167 0.050110903
0.050163541 0.050294124 0.050251983 0.050110463 0.050137386 0.050161455
0.050258908 0.050072465 0.050030705 0.050114188 0.050097857 0.050172746
0.050165974 0.050198782 0.049979884 0.050050221 0.049955823 0.050122403
0.050161932 0.049914122 0.049805485 0.050074659 0.050067555 0.049937144
0.049887814 0.049968142 0.050045345 0.049916521 0.049864449 0.049831793
0.049969979 0.04983313 0.049776256 0.049757197 0.049703024 0.049873505
0.049937997 0.049708094 0.049801949 0.049796216 0.049778052 0.049824238
0.049777925 0.049735021 0.049823936 0.049874417 0.049951036 0.049938366
0.049685009 0.049685009 0.049844161 0.049556091 0.049604684 0.049751505
0.049887348 0.049589686 0.049744405 0.04976346 0.049803544 0.049856421
0.049717829 0.049735077 0.049688924 0.049711838 0.049773403 0.049828101
0.04971702 0.049613956 0.0499737 0.050071821 0.04989792 0.049878258
0.049870908 0.049993612 0.049898956 0.049787715 0.050052356 0.050137244
0.049891856 0.050081827 0.050169386 0.050201312 0.050145671 0.049966339
0.050166003 0.050288878 0.05015108 0.050177906 0.050160605 0.05019198
0.050168581 0.05018156 0.050318465 0.050325256 0.050241631 0.050214566
0.050259866 0.050213486 0.050186567 0.050194945 0.050336197 0.050040673
0.050245173 0.050463911 0.050377335 0.050257627 0.050166722 0.050139293
0.050006263 0.050259158 0.050040118 0.050026104 0.050172027 0.050248031
0.050111018 0.050214749 0.050238673 0.050168011 0.050281152 0.050234873
0.050173387 0.050004058 0.04992659 0.050139163 0.050268099 0.050222106
0.050392404 0.050180547 0.050252058 0.050357547 0.050296668 0.050168004
0.050164212 0.050233189 0.050346624 0.050106786 0.050083295 0.050144292
0.050081737 0.050164372 0.050206013 0.050215919 0.050037552 0.050002329
0.049977507 0.050206434 0.050201058 0.0499519 0.049795344 0.050041717
0.050012089 0.049885724 0.049869291 0.049985576 0.05000823 0.049839508
0.049743447 0.049806211 0.049926981 0.049764436 0.049782112 0.049754243
0.049646001 0.049773224 0.049856126 0.049619861 0.049783468 0.049750954
0.049787093 0.049761873 0.049726699 0.049672861 0.049694899 0.049753916
0.049921099 0.049878273 0.049613029 0.049613029 0.049711358 0.049505427
0.0495908 0.049655683 0.049894635 0.049497534 0.049649376 0.049703233
0.049744956 0.049782369 0.049625907 0.049646381 0.049600393 0.049651794
0.049743738 0.049739573 0.049636945 0.049557246 0.049875431 0.050058037
0.049848195 0.049860641 0.049834307 0.049968541 0.049888384 0.049818214
0.050072987 0.05012669 0.049866967 0.050045915 0.050224677 0.050232708
0.050200451 0.049964663 0.050089657 0.050317615 0.050201934 0.050231136
0.050220825 0.0502019 0.050264355 0.050300125 0.050413407 0.050334532
0.050310601 0.050278779 0.050379448 0.050287124 0.050181787 0.050307158
0.050382126 0.050005343 0.050318856 0.050594665 0.050539356 0.050365128
0.05019502 0.050196808 0.050040416 0.050276294 0.050064337 0.050137155
0.050265029 0.050237019 0.050235011 0.050320089 0.050257407 0.050211348
0.050330665 0.050366044 0.05022461 0.050096888 0.05000288 0.050150938
0.050342135 0.050301082 0.050455153 0.05021318 0.050351001 0.050397214
0.050340459 0.05028379 0.050222907 0.050309677 0.050363023 0.050124723
0.05013606 0.050224256 0.050128724 0.050181318 0.050215613 0.050206758
0.050140388 0.04998377 0.049958516 0.050245184 0.050248735 0.049985997
0.049757347 0.049982637 0.049919441 0.049844228 0.049862724 0.049975198
0.049938895 0.049747702 0.049688485 0.049794033 0.04984301 0.049713723
0.04972541 0.049701467 0.049598448 0.049667917 0.049719315 0.049522087
0.0498164 0.049679201 0.049777005 0.049673188 0.049693439 0.04961716
0.049598977 0.049668018 0.049824357 0.049776033 0.049578022 0.049578022
0.04956644 0.049455848 0.049581893 0.049621064 0.049910996 0.049411356
0.049567979 0.049634285 0.049641937 0.049668916 0.049487911 0.049556028
0.049530111 0.049602177 0.049698945 0.049586158 0.049547751 0.049556941
0.049800683 0.049979806 0.04973647 0.049849689 0.049788665 0.049875811
0.049869917 0.049889244 0.050091594 0.050147895 0.049914699 0.049988773
0.050265726 0.050232764 0.050217766 0.049997941 0.050039697 0.050343424
0.050220251 0.050250635 0.050294589 0.050167494 0.050345648 0.050413672
0.050555553 0.050381396 0.050383173 0.0503342 0.050410196 0.050398719
0.050180037 0.050440457 0.050371192 0.050007988 0.050384596 0.05070452
0.050699662 0.05044641 0.050201535 0.050266016 0.050111208 0.050282244
0.050086159 0.050265115 0.050345019 0.050221998 0.050399002 0.050389063
0.050268114 0.05023104 0.050361145 0.05049102 0.050254203 0.050253548
0.050097533 0.050151262 0.050414085 0.050388336 0.05051329 0.050168771
0.050439566 0.050432499 0.050396003 0.050403729 0.050305136 0.050386798
0.050347708 0.050126825 0.050180443 0.050343685 0.05022208 0.050184511
0.050199214 0.050196443 0.050276928 0.050026618 0.049925916 0.050188962
0.050245572 0.050016455 0.049699277 0.049931027 0.049843732 0.049805567
0.049866088 0.049940445 0.049844343 0.049658336 0.049673554 0.049807761
0.049748365 0.049668357 0.04958545 0.049571246 0.049509875 0.049595367
0.0495927 0.049416069 0.049886756 0.049621366 0.049720168 0.049568702
0.049649533 0.049576562 0.049573448 0.049606387 0.049681902 0.049631122
0.049607001 0.049607001 0.049455382 0.049401175 0.049572796 0.04962023
0.049866725 0.049362216 0.049540881 0.049601279 0.049521975 0.049553454
0.049323708 0.049459919 0.049490795 0.049553879 0.049649034 0.049417697
0.049436942 0.049596619 0.049780123 0.049821906 0.049589306 0.049846575
0.049734976 0.049741954 0.049843855 0.04998672 0.050126094 0.050173957
0.050018355 0.049949177 0.050279446 0.050247211 0.050149363 0.050037242
0.050078865 0.050388012 0.050211586 0.050204426 0.050395124 0.050104395
0.05037402 0.050531644 0.050700657 0.050512195 0.050486661 0.050364509
0.050341181 0.050534654 0.050187033 0.050545383 0.050347134 0.050071966
0.050468169 0.050739814 0.050827347 0.050405141 0.050236005 0.050293475
0.050198011 0.050297067 0.050111011 0.050305001 0.050378002 0.050186004
0.050573096 0.050418507 0.05025902 0.050219268 0.050338022 0.050585013
0.050296094 0.0504192 0.050177399 0.050182901 0.050438419 0.050480809
0.050564442 0.050091382 0.050519317 0.050463662 0.05045215 0.050476946
0.050392099 0.050485689 0.050353557 0.050132688 0.050207794 0.050440777
0.050322186 0.050170932 0.050167207 0.05021105 0.050416715 0.050107706
0.04993077 0.050047781 0.050151218 0.05004992 0.049686182 0.049904127
0.049814321 0.049795251 0.049902696 0.049923003 0.049749158 0.0495736
0.049658097 0.049831312 0.049665745 0.049596991 0.049388349 0.04942178
0.049358562 0.049579944 0.049528878 0.049301159 0.049960297 0.049603872
0.049636591 0.049468726 0.049553882 0.049564004 0.049600322 0.049549006
0.049547713 0.049462788 0.049693108 0.049693108 0.049385369 0.049355004
0.049580704 0.049610998 0.049733758 0.049371865 0.049565375 0.049611785
0.049416259 0.049455214 0.049189046 0.049372535 0.049475957 0.049505413
0.049601652 0.049315836 0.049344376 0.049647417 0.04979657 0.049621664
0.049451761 0.049813282 0.049691103 0.049653053 0.049850143 0.050099861
0.050166082 0.050150793 0.050130572 0.049953245 0.050246362 0.050306864
0.050030299 0.050061189 0.05021758 0.050435651 0.050185733 0.050111003
0.050529715 0.050059829 0.050377838 0.05068538 0.050770838 0.050706021
0.050628044 0.05037304 0.050271001 0.050631121 0.050216146 0.05061803
0.050349008 0.050202023 0.050555509 0.050705001 0.050839756 0.050204415
0.050338451 0.050241999 0.050254054 0.050343011 0.050156303 0.050205182
0.050350178 0.050132006 0.050666451 0.050415017 0.050232541 0.050204013
0.050245482 0.05062861 0.050364371 0.050535191 0.050246011 0.050271999
0.050388247 0.050566092 0.05058872 0.050071023 0.050582882 0.050488085
0.050501976 0.050467461 0.050477512 0.05063853 0.050391223 0.050172482
0.05023022 0.050446417 0.05039395 0.050172109 0.050138529 0.050247028
0.050493393 0.05015156 0.050007552 0.049911059 0.049998518 0.050083946
0.049785256 0.04989861 0.049813375 0.049863055 0.049980123 0.049949009
0.049674805 0.049513221 0.049627129 0.049822479 0.049602021 0.049495526
0.049201462 0.049340386 0.049199522 0.049603175 0.049504809 0.049207762
0.050002281 0.049615808 0.049582876 0.049375523 0.04939713 0.049589112
0.049603105 0.049500428 0.049457546 0.049313493 0.049780857 0.049780857
0.04932956 0.049318001 0.049615923 0.049593017 0.049577922 0.049426429
0.049566314 0.049623013 0.04934337 0.049377836 0.049138937 0.049315099
0.049442243 0.0494617 0.049565721 0.049344439 0.049327519 0.049666088
0.049802598 0.049453538 0.049370248 0.049716521 0.049680877 0.04967789
0.049916998 0.050181601 0.050165221 0.050070312 0.050222915 0.050002672
0.050154563 0.05037754 0.049948752 0.050082285 0.050386067 0.050446454
0.050179183 0.050040931 0.050666478 0.050090067 0.050407618 0.050868023
0.050740037 0.050866034 0.050753761 0.05041505 0.050306339 0.05064055
0.050259989 0.050720192 0.050383415 0.050392315 0.050554637 0.050643492
0.050677329 0.049963012 0.050460547 0.050142523 0.050241333 0.05039626
0.050210401 0.05000655 0.050274331 0.050093088 0.050598625 0.050379358
0.050208587 0.050216366 0.050132331 0.050607383 0.050414983 0.050575282
0.050323583 0.050376549 0.050323524 0.050609972 0.050589353 0.050139114
0.050636999 0.050493415 0.050560005 0.050391041 0.050563227 0.050825093
0.050444368 0.050280467 0.050281271 0.050349344 0.050429564 0.050211832
0.050142173 0.050272617 0.050438214 0.050098792 0.050116386 0.049877934
0.049889661 0.050102308 0.049985778 0.049913958 0.049816307 0.050023206
0.050035097 0.049981963 0.049626943 0.049507681 0.049590301 0.049743608
0.049561489 0.049416821 0.049106691 0.049347211 0.049123272 0.049604971
0.049458135 0.049178127 0.049984049 0.049632467 0.049595475 0.049294807
0.049232204 0.049645003 0.049516112 0.049475539 0.049391676 0.049234491
0.049796265 0.049796265 0.049266007 0.049281023 0.049633596 0.049605116
0.049497072 0.049485337 0.049467597 0.049586266 0.049323339 0.049321305
0.049186952 0.049291257 0.049352854 0.049419474 0.04956245 0.049485281
0.049375303 0.049616672 0.049765952 0.049393084 0.049363896 0.049591426
0.049717464 0.049800135 0.050017603 0.050170716 0.050094441 0.049990036
0.05028718 0.050077211 0.050042182 0.050398499 0.049968369 0.050138384
0.050488286 0.050416749 0.050259478 0.050065003 0.050743055 0.050204068
0.050490398 0.051002625 0.050663292 0.050913189 0.050775059 0.050562065
0.0504569 0.050588861 0.050326865 0.05085288 0.050471742 0.050551556
0.050441578 0.050547976 0.050463121 0.04981235 0.050531991 0.050033666
0.050184175 0.050367843 0.050223164 0.049828451 0.050199065 0.050071087
0.05037535 0.050280672 0.050225314 0.050240997 0.050069254 0.050537303
0.050393753 0.050573237 0.05038679 0.050432757 0.050322276 0.050597209
0.050578546 0.050269764 0.050703663 0.050469004 0.050635774 0.050335344
0.050640665 0.050981011 0.050502032 0.050461099 0.050371069 0.05020982
0.050444093 0.050280012 0.050210681 0.050260719 0.050252426 0.049990173
0.050166033 0.049954154 0.049922626 0.050103091 0.050191686 0.049970202
0.049834024 0.050198853 0.04997782 0.049970936 0.04959799 0.049565405
0.049563043 0.04961111 0.049541835 0.049412005 0.049146496 0.049386404
0.049163885 0.049533188 0.049374532 0.049214706 0.049883187 0.049646597
0.049652487 0.049253151 0.049126275 0.049684413 0.0493492 0.049464129
0.049304612 0.049261712 0.049699783 0.049699783 0.049209375 0.049231015
0.049559165 0.04966696 0.049503237 0.049505945 0.049282316 0.049496334
0.049359053 0.049282413 0.049292788 0.049296584 0.049236063 0.049370479
0.049609002 0.049637578 0.049407709 0.049507339 0.049703632 0.049455095
0.049421579 0.049521349 0.049790721 0.049933705 0.050098483 0.050050944
0.049980737 0.049984705 0.050313994 0.050143544 0.049987335 0.050353307
0.050086223 0.050264452 0.050493263 0.050396655 0.050467189 0.050192621
0.050727293 0.050362188 0.050586529 0.051023733 0.050626826 0.050840799
0.050687581 0.050794173 0.050657351 0.050569482 0.050445411 0.050949328
0.050598599 0.05059896 0.050264146 0.050433878 0.050359961 0.049831584
0.050490838 0.049941823 0.050124049 0.050186675 0.050132032 0.049785137
0.050156176 0.050003 0.050074067 0.050111357 0.050284188 0.050237134
0.050086062 0.050461318 0.050315786 0.050563432 0.050391261 0.050412256
0.050417397 0.050557118 0.050556384 0.050451349 0.050763987 0.050458975
0.050699618 0.050410479 0.050704122 0.051036056 0.050573237 0.050673097
0.050463468 0.05011867 0.050464246 0.050371915 0.050347526 0.050220441
0.050047114 0.049942799 0.050122477 0.050053257 0.050108965 0.050109196
0.050318275 0.050080922 0.049889173 0.050256353 0.049787078 0.049903445
0.049565595 0.049642876 0.049552806 0.049491927 0.049546603 0.049468238
0.049277619 0.049391855 0.049262993 0.049401462 0.04930589 0.049275335
0.049702611 0.04966297 0.049692832 0.049265925 0.049096357 0.04964979
0.049177971 0.049432006 0.049215365 0.049373034 0.049528673 0.049528673
0.049174089 0.049181025 0.049363676 0.049723461 0.049497496 0.049478799
0.049123228 0.049389396 0.049416382 0.049244642 0.049393248 0.049336679
0.04918256 0.049315657 0.04966975 0.049674291 0.049341902 0.049402144
0.049658906 0.049585182 0.049512126 0.049569841 0.049874887 0.050001264
0.050116479 0.049875677 0.049879197 0.05007543 0.050289545 0.050181516
0.050054159 0.050293498 0.050246891 0.050436337 0.05045357 0.050437547
0.05076408 0.05038001 0.050641991 0.050521206 0.050642893 0.05092153
0.050667271 0.05074114 0.050600611 0.051003952 0.050807763 0.050674707
0.050620936 0.050953325 0.0506934 0.0505572 0.050112762 0.050354294
0.050396133 0.050003089 0.050311539 0.049886778 0.050070513 0.049873549
0.049937077 0.049886104 0.05010308 0.049856097 0.049775001 0.049917888
0.050322451 0.050177094 0.050156351 0.050405372 0.050261974 0.050538544
0.050316636 0.050356712 0.050570901 0.050525706 0.050565515 0.050664902
0.050777651 0.050503027 0.050732326 0.050637558 0.050771207 0.050949145
0.050666176 0.050843101 0.050525103 0.050144497 0.0505029 0.050497968
0.050512657 0.050191458 0.049959999 0.050034236 0.050065622 0.050105996
0.050344639 0.050130025 0.05035327 0.050224919 0.049959939 0.050132658
0.049555011 0.049803872 0.049499255 0.049675297 0.049553879 0.049444437
0.049577277 0.049516551 0.049399372 0.049350087 0.049333163 0.049296483
0.049297396 0.049323205 0.049473375 0.049664356 0.04966012 0.049291357
0.049112383 0.049514487 0.049075227 0.049370088 0.049194008 0.049495239
0.049343351 0.049343351 0.04914844 0.049164284 0.049116563 0.049689613
0.049361788 0.049423557 0.049087629 0.049292352 0.04943154 0.04920749
0.049466066 0.049418509 0.049249005 0.049258616 0.04966107 0.049544074
0.049197983 0.049369417 0.049653575 0.049690153 0.04960642 0.049717829
0.049934749 0.049986057 0.050055653 0.049728639 0.049824782 0.050213199
0.050223492 0.05020443 0.050221968 0.050286219 0.050399471 0.05056677
0.050447341 0.050536491 0.051032245 0.050590228 0.050561726 0.050668079
0.050677136 0.050755411 0.050731722 0.050735813 0.050645627 0.051098991
0.050849315 0.050891303 0.050832722 0.050868809 0.05072064 0.050493222
0.050085511 0.050317179 0.050473761 0.050203685 0.050045852 0.04987333
0.050021984 0.049529348 0.049733553 0.050018713 0.049966499 0.049662109
0.049545012 0.049744211 0.050253667 0.050062016 0.050215777 0.050359033
0.050281815 0.050464723 0.050209209 0.050340679 0.050685603 0.050538879
0.050655749 0.050868209 0.050737336 0.050622683 0.050764337 0.050931752
0.050823078 0.050768446 0.050774027 0.050919004 0.050584003 0.050310396
0.050568029 0.050660212 0.050647777 0.050223883 0.050049886 0.050238773
0.050119348 0.050122358 0.050474923 0.050142709 0.05033724 0.050326269
0.049994886 0.049900103 0.049406599 0.049695235 0.049396396 0.049647346
0.049539018 0.049468566 0.049632657 0.049500611 0.049442299 0.049290109
0.049347136 0.049300142 0.049314447 0.04936827 0.049252279 0.049615849
0.049540408 0.049266089 0.049145546 0.049307253 0.049047064 0.049317162
0.049260005 0.049545728 0.049185999 0.049185999 0.049124114 0.049186517
0.048930041 0.049536005 0.049083807 0.049377803 0.049155172 0.049206674
0.049354695 0.049195763 0.049542431 0.049496364 0.049381673 0.049212437
0.049520187 0.049322609 0.049099155 0.049418904 0.049671151 0.049697131
0.049688984 0.049894288 0.049946103 0.049919713 0.049922109 0.049673192
0.049826279 0.050319929 0.050152704 0.050237171 0.050399765 0.050352782
0.050523013 0.050581276 0.05051079 0.050639756 0.051151227 0.05080447
0.050565008 0.05082804 0.050748181 0.050631318 0.050752509 0.050870333
0.050868317 0.05109806 0.050819505 0.051093768 0.051026098 0.050765451
0.050701749 0.050470047 0.050195839 0.050304186 0.050460633 0.050306831
0.049788542 0.049899604 0.049990516 0.049270209 0.049626872 0.050049588
0.049724985 0.049497001 0.049425047 0.049609236 0.050018206 0.049918063
0.050197884 0.050270602 0.050337061 0.050349128 0.05016315 0.050399367
0.050681699 0.050609685 0.05080463 0.051037181 0.050689772 0.050830901
0.050841015 0.051169977 0.050816137 0.050594084 0.050872043 0.050925143
0.05070401 0.050578505 0.050661296 0.050805915 0.050712742 0.050354563
0.050263412 0.050457019 0.050310336 0.050158042 0.050419763 0.050104037
0.050299902 0.050290026 0.049980842 0.049710732 0.049397603 0.049591694
0.04931172 0.049607348 0.049486928 0.049512606 0.049696766 0.049422488
0.049423315 0.049238514 0.049348518 0.049400527 0.049284492 0.049429655
0.049087077 0.049502946 0.049349688 0.049190145 0.049192157 0.049083486
0.049052276 0.049302466 0.049336225 0.049466725 0.049087171 0.049087171
0.049109083 0.04922235 0.048859999 0.049329095 0.048782434 0.049358532
0.049208529 0.049127813 0.049205653 0.049217474 0.049647167 0.049476296
0.049464025 0.049201854 0.049290448 0.049176041 0.049155802 0.049488466
0.049685817 0.04959413 0.049742766 0.05002217 0.049901534 0.049847554
0.049761571 0.049731866 0.049875636 0.050327487 0.050101213 0.050268311
0.050495796 0.050459143 0.050604124 0.050501555 0.050648879 0.05071165
0.051093224 0.050984796 0.050694872 0.051012717 0.050901022 0.050643098
0.050738499 0.051083181 0.051186889 0.051119242 0.050821818 0.051164113
0.051149916 0.050719421 0.050696712 0.050496317 0.050361089 0.050302062
0.05030435 0.050252791 0.049624294 0.049947679 0.049980998 0.049153276
0.049603775 0.049912728 0.049447391 0.049419165 0.049399056 0.049515195
0.04964108 0.049763259 0.050055575 0.050101023 0.050347291 0.050250482
0.050236043 0.050493736 0.050582264 0.050713036 0.050928753 0.051171415
0.050733577 0.051107701 0.050975204 0.051256076 0.050775327 0.050512504
0.050971363 0.050904337 0.050926358 0.050851844 0.050781213 0.050856039
0.05070468 0.050580692 0.050493617 0.050598621 0.050531708 0.050251458
0.050238427 0.050007429 0.050243314 0.050099041 0.049950805 0.04965746
0.049492255 0.049540523 0.049332801 0.049611129 0.049405962 0.049524609
0.049739614 0.049325529 0.049410902 0.049210507 0.049375013 0.049490843
0.049183626 0.049491517 0.048998125 0.049348824 0.049124572 0.04913877
0.049255133 0.04890551 0.04905447 0.049292397 0.049323905 0.049262613
0.049048349 0.049048349 0.049110126 0.049251016 0.048850056 0.049164999
0.04861109 0.049338259 0.049147565 0.049058799 0.049061518 0.049221657
0.049725965 0.049309041 0.049447469 0.049250435 0.049114864 0.049228445
0.049358021 0.049503565 0.049677186 0.049447116 0.049744166 0.050047353
0.049825963 0.04980525 0.049649995 0.049869981 0.049945764 0.050214104
0.050057508 0.050245918 0.050487287 0.050549813 0.050631754 0.050449234
0.050850105 0.050776415 0.050933644 0.05109844 0.050910708 0.051185712
0.051105537 0.050815023 0.050785512 0.05128042 0.051460035 0.051237948
0.050935876 0.051120318 0.051189464 0.050751109 0.050747354 0.050551448
0.050489906 0.050304826 0.050073389 0.050088286 0.049593039 0.049970072
0.049949177 0.049170427 0.049534861 0.049627226 0.049239192 0.049381178
0.049433 0.049435303 0.04924529 0.049592726 0.049810469 0.049870074