# vtk DataFile Version 3.0
axinsert(project(permute(???,2,0,1),0,L2),2)
ASCII
DATASET STRUCTURED_POINTS
DIMENSIONS 128 256 1
ORIGIN 0 0 0
SPACING 1 1 1
POINT_DATA 32768
SCALARS nrrd26345 float
LOOKUP_TABLE default
0.050017077 0.049970187 0.050037999 0.050004058 0.049983021 0.050002005
0.049992103 0.050028 0.049993083 0.049992003 0.050002042 0.050007086
0.050028 0.04999302 0.049975999 0.049968999 0.050011043 0.049991045
0.049992029 0.050021999 0.049991008 0.049966022 0.050047018 0.050013009
0.050009001 0.05001206 0.049979005 0.049977113 0.049983229 0.050004069
0.049961332 0.049997121 0.049996093 0.049975391 0.050030131 0.050048292
0.049997002 0.05000516 0.049997002 0.050022084 0.050004229 0.050027169
0.050021093 0.04991404 0.050014429 0.05007812 0.049973998 0.049974035
0.050008055 0.050031006 0.050026707 0.049966086 0.049974006 0.050017167
0.049977999 0.049992003 0.049962036 0.049998119 0.050029032 0.050016113
0.049973395 0.049953531 0.049979009 0.050032482 0.050056029 0.049992058
0.04995 0.050004229 0.050038129 0.049953081 0.049984075 0.050027054
0.050029092 0.049975026 0.050011627 0.050040018 0.050005998 0.050019003
0.049973022 0.049944159 0.049998999 0.050000072 0.050002106 0.050011072
0.050005045 0.050032035 0.050024051 0.05000513 0.049961999 0.049967028
0.049993187 0.050003093 0.050007306 0.050037138 0.050008006 0.050005138
0.050001021 0.049986061 0.049981005 0.050036035 0.050046001 0.049993277
0.049959 0.050030146 0.050032381 0.049972169 0.049954019 0.049989
0.05000202 0.049976051 0.049996171 0.050015006 0.049963005 0.050052311
0.049980361 0.0499475 0.050025094 0.05004302 0.049998999 0.050044999
0.050018463 0.049903039 0.049979303 0.050060008 0.050011013 0.049973007
0.050027009 0.050027009 0.049993012 0.050059177 0.050069176 0.050006088
0.049966205 0.049932122 0.049961042 0.050136451 0.050021127 0.049955051
0.049966998 0.049946137 0.050078265 0.049983047 0.049962107 0.050040033
0.050050043 0.050005019 0.049981054 0.049962036 0.049940083 0.050022144
0.050075129 0.049995102 0.050043002 0.050035011 0.049942005 0.049964011
0.050014067 0.049887035 0.049880471 0.050045006 0.050006166 0.049919005
0.050015092 0.050159119 0.050008014 0.050006028 0.050026022 0.050066028
0.049988024 0.049919002 0.050122663 0.049956154 0.049968008 0.05008202
0.049945209 0.050053999 0.050095085 0.050031111 0.050029088 0.049877003
0.049984127 0.050038021 0.049915101 0.049916003 0.049929056 0.050051026
0.050095052 0.050046034 0.049913086 0.04992 0.050000265 0.050064076
0.05013724 0.04995203 0.04985109 0.049933031 0.05007609 0.049891058
0.049941175 0.050101038 0.050077073 0.049959071 0.04994601 0.050161004
0.050035004 0.050032005 0.049900021 0.049920008 0.050055109 0.049980029
0.05000804 0.049978018 0.050061032 0.050084155 0.050118126 0.050013304
0.049877301 0.04993907 0.050019175 0.049992383 0.050032225 0.050088514
0.050016355 0.049924266 0.049944021 0.050053008 0.050018456 0.050012089
0.050053131 0.0499781 0.050022133 0.050069567 0.0499941 0.049912021
0.049915127 0.050007116 0.049998216 0.049895 0.050059061 0.050024062
0.04990818 0.050116006 0.050003391 0.049842086 0.050056186 0.050077017
0.050017055 0.050131049 0.050008047 0.049863108 0.049954493 0.05005914
0.050003044 0.049927004 0.05001802 0.05001802 0.049969014 0.050134022
0.050005008 0.050009247 0.050015002 0.049893051 0.049922019 0.050107293
0.050098017 0.049886078 0.049887266 0.049900506 0.050082516 0.050029468
0.050025187 0.050125126 0.050000079 0.049989581 0.049971275 0.049924493
0.049951084 0.050117377 0.050020006 0.049924865 0.05005911 0.050061699
0.050007027 0.050007127 0.050048999 0.049749099 0.049865168 0.050090071
0.049999081 0.049982153 0.049968012 0.050090238 0.050034158 0.05002312
0.050067116 0.05005601 0.049973186 0.049844004 0.050134186 0.050103001
0.049921099 0.049989 0.049985103 0.050164066 0.050127003 0.050021023
0.049988028 0.049960017 0.050019857 0.049976029 0.049851283 0.049841039
0.050047047 0.050122183 0.050055247 0.050042018 0.049919162 0.049973089
0.050077345 0.050014354 0.050066076 0.049977113 0.04988521 0.049885415
0.050032102 0.049902212 0.049970154 0.050106272 0.050063223 0.049998097
0.049966581 0.050117373 0.04999014 0.049999051 0.04992909 0.050017238
0.050072387 0.049989276 0.049960788 0.050000057 0.050111108 0.050011173
0.050129343 0.050043143 0.049868587 0.049992166 0.050041061 0.050005227
0.050112229 0.050054107 0.049977034 0.049864598 0.049901895 0.05009535
0.050027698 0.04994322 0.050010331 0.050011218 0.050110567 0.050040457
0.049899369 0.049933124 0.049971577 0.049987353 0.049927302 0.049922012
0.050058801 0.050023019 0.049970686 0.050065052 0.050043389 0.049901083
0.050000999 0.049989 0.050037216 0.050076999 0.050056033 0.049998187
0.049965199 0.049957238 0.049893018 0.049944025 0.049995054 0.049995054
0.050000001 0.050067 0.0499602 0.050001036 0.050060235 0.049934059
0.049876023 0.050025269 0.050113231 0.049850345 0.049829356 0.049887385
0.050066773 0.050079755 0.050065503 0.050103568 0.049938798 0.049924117
0.050010547 0.049986754 0.049967833 0.050114747 0.049987718 0.049910247
0.050078556 0.050085139 0.050075486 0.050024565 0.050028451 0.049756948
0.049883094 0.050093297 0.049972147 0.050046563 0.049982004 0.050014269
0.050044138 0.050039232 0.050091114 0.05004013 0.049984235 0.049917012
0.050138004 0.050053008 0.049946148 0.050047025 0.050025012 0.050132185
0.050080035 0.050073009 0.050017003 0.050120097 0.05000278 0.049919024
0.049823593 0.049801085 0.050129496 0.050135285 0.050018486 0.0500031
0.049969092 0.050004315 0.050092354 0.049971238 0.05002014 0.050022144
0.049943283 0.049901776 0.049991317 0.049925406 0.049971621 0.050105207
0.050023519 0.050052062 0.050047051 0.050001297 0.049942162 0.050008226
0.050000452 0.050019749 0.050047368 0.050078545 0.049913049 0.050029311
0.050137337 0.049946524 0.050113067 0.050068378 0.049866207 0.050030518
0.050035451 0.050024576 0.05021438 0.050040245 0.049945578 0.049881995
0.049893204 0.050023917 0.049990211 0.049940791 0.050042044 0.050040197
0.050092351 0.050000969 0.049882777 0.04996993 0.050025187 0.049947184
0.049842075 0.049987558 0.050010763 0.04998624 0.050042011 0.050037384
0.050030816 0.049974237 0.049944211 0.049906127 0.050013456 0.050024029
0.050128236 0.049987063 0.049969025 0.049952127 0.049803015 0.049955007
0.04998501 0.04998501 0.050015029 0.049988005 0.04994829 0.049981002
0.050019413 0.049985185 0.04984919 0.04999033 0.050077364 0.049852807
0.049869418 0.049828209 0.050001942 0.050074778 0.050069604 0.050059188
0.049920317 0.049866427 0.050056763 0.050016258 0.049968533 0.050113287
0.049954481 0.049949765 0.050078485 0.050079253 0.050110485 0.050015688
0.049978666 0.049877565 0.04998631 0.050074674 0.04993451 0.050077055
0.050042335 0.049995538 0.050042376 0.050047562 0.050092291 0.050024461
0.050043341 0.050031051 0.050126005 0.049970079 0.049994126 0.050154999
0.050072044 0.050060127 0.050027002 0.050093018 0.050067004 0.050229207
0.049955167 0.049942091 0.049891412 0.049821761 0.050120898 0.050109405
0.049993508 0.049924217 0.049997095 0.05006332 0.050050378 0.049946059
0.050032306 0.050036129 0.050027248 0.049914811 0.049948372 0.049970433
0.049921881 0.050079219 0.050003394 0.050092176 0.050073676 0.049916219
0.049983289 0.05006972 0.050056972 0.049990185 0.050022855 0.050141118
0.049895085 0.050052106 0.050156515 0.049969256 0.050099157 0.050069179
0.049885992 0.050045017 0.050031934 0.050013125 0.050231583 0.050076853
0.049945336 0.049934845 0.049895246 0.049970325 0.049997583 0.049931783
0.050066244 0.050065987 0.050069578 0.049955614 0.04989893 0.049999014
0.050015997 0.049963046 0.04982667 0.050013099 0.049978632 0.049918581
0.050019398 0.050033834 0.05000031 0.049979523 0.049942832 0.049869731
0.049966514 0.050019361 0.050082427 0.049900025 0.049993038 0.049950078
0.049799003 0.049941123 0.049940005 0.049940005 0.050008018 0.049949002
0.049927127 0.049963031 0.049934231 0.049994454 0.049839348 0.049967453
0.050014675 0.049841322 0.049964007 0.04979049 0.0499302 0.049983118
0.050013237 0.050018452 0.049922243 0.049871378 0.050043754 0.050004225
0.04997541 0.050108995 0.049938865 0.050015148 0.05002819 0.050088257
0.050140887 0.050007746 0.049931072 0.049998678 0.050128397 0.050049029
0.049910698 0.050088055 0.050080534 0.0500037 0.05003636 0.050072663
0.050104048 0.050039224 0.050116688 0.050129466 0.050111156 0.049933434
0.050030209 0.050228205 0.050144024 0.050050002 0.050016999 0.050085012
0.050121002 0.050241161 0.049942005 0.050001271 0.04999207 0.049905159
0.050053712 0.050060429 0.049964268 0.049877215 0.050002202 0.050100271
0.049993291 0.049952071 0.050054464 0.050008114 0.05010923 0.049943563
0.049910478 0.050030343 0.049911976 0.050011531 0.05000332 0.050121538
0.050060514 0.049910478 0.05007172 0.050141308 0.050084613 0.049995713
0.050038934 0.050123334 0.049900539 0.050102729 0.050152287 0.050026447
0.05010251 0.050058618 0.049962308 0.050045166 0.050032441 0.049998187
0.050181124 0.050128639 0.049949255 0.04997047 0.049944699 0.049972288
0.050030924 0.049914971 0.050055526 0.050082263 0.050059672 0.049934849
0.049928524 0.049977526 0.049936607 0.050009478 0.049859408 0.049987007
0.049952473 0.049848992 0.049937136 0.050027542 0.049965791 0.049914014
0.049971677 0.0498612 0.04992358 0.0500126 0.049981337 0.049845073
0.050006125 0.049914062 0.049821019 0.04991208 0.049895003 0.049895003
0.049977001 0.049920045 0.049891077 0.049947262 0.049857181 0.049951822
0.049851611 0.049911704 0.049933452 0.049794007 0.050012361 0.049807943
0.049883947 0.049857579 0.049911521 0.049981888 0.049931891 0.049907703
0.049979374 0.049972516 0.049989145 0.050084312 0.049945559 0.050084151
0.049991839 0.050109629 0.050154462 0.050006855 0.049907353 0.050064098
0.05022404 0.050044458 0.049932975 0.050101191 0.050086655 0.050023969
0.050044034 0.050102547 0.050145581 0.050096516 0.050168503 0.050180636
0.050130099 0.049957126 0.050055515 0.050250739 0.050225452 0.050107203
0.050061062 0.050101005 0.050170001 0.050189022 0.049994078 0.050045308
0.050058998 0.050005753 0.049984284 0.050009336 0.049932063 0.049901154
0.050018355 0.050093286 0.04996321 0.049997222 0.050053604 0.049973164
0.050155398 0.049980335 0.049897742 0.0500664 0.049963821 0.049953014
0.050002515 0.050147012 0.050056659 0.049958136 0.050133344 0.05019876
0.050114051 0.050026458 0.05009573 0.050098825 0.049929835 0.050150041
0.050122414 0.050092373 0.050114751 0.050060783 0.05009016 0.050069917
0.050031528 0.049993817 0.050120804 0.050171882 0.04993888 0.049974404
0.050033879 0.049997352 0.050046165 0.049906947 0.050024353 0.050077662
0.050050933 0.049940996 0.049961288 0.049920686 0.049875744 0.050025478
0.04987726 0.049940407 0.049898855 0.049791336 0.049871538 0.049998093
0.049922597 0.049825106 0.049965162 0.049855541 0.049862958 0.049965594
0.049918316 0.049833216 0.049985211 0.049881071 0.049813114 0.049874011
0.04986801 0.04986801 0.049927 0.049870118 0.049832206 0.049921706
0.04980842 0.049878206 0.049867298 0.0498253 0.049840752 0.049733009
0.049974944 0.049845655 0.049858492 0.049765427 0.049816437 0.04993695
0.049933236 0.049916316 0.049924038 0.049961634 0.049987942 0.050034378
0.049949374 0.050127584 0.050006758 0.05011382 0.050138377 0.050021213
0.04992431 0.050096121 0.050240241 0.050067659 0.050004378 0.050121583
0.050102811 0.050065517 0.050070077 0.05012352 0.050195552 0.050170261
0.050211001 0.050193183 0.05018286 0.050040945 0.050094027 0.05024216
0.05027812 0.050180782 0.050149404 0.050157078 0.050193056 0.050144035
0.050081149 0.050084092 0.050094999 0.050066248 0.049961068 0.04997227
0.04990302 0.049985167 0.050051525 0.050060332 0.049967229 0.050059449
0.050029706 0.049963251 0.050165724 0.050012276 0.049927071 0.050049718
0.050026711 0.049955379 0.050005052 0.050154384 0.050079055 0.050022881
0.050156981 0.050227381 0.050161194 0.050068464 0.050163317 0.050136112
0.04999375 0.050164543 0.050099034 0.050144527 0.050126959 0.050096996
0.050217345 0.050140914 0.05003738 0.0500177 0.050086189 0.050195362
0.049927521 0.049979221 0.05012108 0.049996 0.050018094 0.049924813
0.050000504 0.050058033 0.050032206 0.049949713 0.049986281 0.04988125
0.049882371 0.049982697 0.049861882 0.049895663 0.049818199 0.049746498
0.04984384 0.049946364 0.049869236 0.049749952 0.049907647 0.049828291
0.049777832 0.049881939 0.049883634 0.049816452 0.049941305 0.049872115
0.049775247 0.049837016 0.049827069 0.049827069 0.049873009 0.049782146
0.049739573 0.049880158 0.049785122 0.049786542 0.049850713 0.049740404
0.049756419 0.049688172 0.049882166 0.049853161 0.049830738 0.049723681
0.04975279 0.049879719 0.049910851 0.049873419 0.049914513 0.04998244
0.049956493 0.049967457 0.049938336 0.050123367 0.050039634 0.050080743
0.050105363 0.050067749 0.049972702 0.050122585 0.050210658 0.05010717
0.050099902 0.050145 0.050158266 0.050143342 0.050111849 0.050146598
0.050235793 0.050232403 0.050258171 0.050198991 0.050256878 0.050175015
0.05015875 0.050234567 0.050289653 0.050241482 0.050254919 0.050224386
0.050203342 0.050140232 0.050158281 0.050155003 0.050129998 0.05008005
0.049992017 0.049969252 0.049897067 0.050088301 0.050073698 0.050017349
0.049990334 0.050115574 0.049996778 0.049976341 0.050163984 0.050038368
0.049997319 0.05001124 0.050066024 0.050008681 0.050009772 0.050146621
0.050121717 0.050081484 0.050188832 0.050226584 0.050211672 0.050137803
0.050225753 0.050211597 0.050088763 0.050176024 0.050120655 0.050170083
0.050137188 0.050157573 0.050294302 0.050231501 0.050076835 0.050085369
0.050075665 0.050195839 0.0499359 0.050015952 0.050170094 0.049960397
0.049960915 0.049972143 0.050002489 0.050026506 0.049995087 0.049947154
0.050000541 0.049877293 0.049916413 0.049903501 0.049836654 0.049850289
0.049732544 0.049706839 0.049810909 0.049886551 0.04982378 0.04969012
0.049822919 0.049768604 0.049693167 0.04979004 0.049825486 0.049758874
0.049880542 0.049863216 0.049741294 0.049803101 0.049746096 0.049746096
0.049821034 0.049659211 0.049622025 0.049818505 0.049768221 0.049679976
0.049786687 0.049674857 0.049695279 0.049674336 0.049779333 0.049808722
0.049781483 0.049703564 0.049716502 0.049824316 0.049859527 0.049792763
0.049932875 0.050012562 0.049910743 0.049909029 0.049918193 0.050081447
0.050043754 0.05001349 0.050075494 0.050137077 0.050023992 0.050147142
0.050190207 0.050157633 0.050189283 0.050162476 0.050240975 0.050250858
0.050171126 0.050191924 0.050269887 0.050284378 0.050306108 0.050222673
0.050341912 0.050327908 0.050248098 0.050255619 0.050290298 0.050287236
0.050339501 0.050276164 0.050239913 0.050163496 0.050217625 0.050260127
0.050188009 0.05009301 0.050055023 0.050006237 0.049920212 0.050168443
0.050065733 0.049977299 0.050020453 0.050157558 0.049971767 0.050001483
0.05017015 0.050063599 0.050086513 0.050008774 0.050087977 0.05005414
0.050005499 0.050145969 0.050180703 0.05014025 0.050260201 0.050217468
0.050256245 0.050244905 0.050288733 0.050269149 0.0501903 0.05022094
0.050203875 0.050185733 0.050152779 0.05021872 0.050311111 0.050302196
0.050158795 0.050180119 0.050076742 0.050180331 0.0499711 0.050084013
0.050183196 0.049924321 0.049906459 0.050032128 0.050026044 0.049984947
0.049943648 0.049939711 0.050001848 0.049881931 0.049908012 0.049824253
0.049827304 0.04979635 0.04966845 0.049665641 0.049737498 0.049823444
0.049792584 0.049627997 0.049734078 0.049690146 0.049632672 0.04970983
0.049728706 0.049664691 0.049792994 0.049814399 0.049725249 0.049767312
0.049628049 0.049628049 0.049757075 0.049520493 0.049503282 0.049723886
0.0497403 0.049562581 0.049688503 0.049627323 0.049658138 0.049679603
0.049687188 0.049724117 0.049703866 0.049669474 0.049688943 0.049777385
0.04978415 0.049691599 0.0499347 0.050034307 0.04988037 0.049877223
0.049897067 0.050038114 0.050014663 0.049936835 0.050060704 0.050199304
0.050051071 0.050164841 0.05020798 0.050224941 0.050260723 0.050170165
0.050311726 0.050362457 0.050251596 0.050265864 0.050315745 0.050338235
0.050354414 0.05028088 0.050431468 0.050462149 0.050350722 0.050315954
0.050330721 0.050336249 0.050387438 0.050314534 0.050323647 0.050191939
0.050270349 0.050380368 0.050276145 0.050148003 0.050120015 0.050066169
0.049955264 0.05021438 0.050037526 0.049956199 0.050055504 0.050182488
0.049974643 0.050043762 0.050185278 0.050091963 0.050171699 0.050066218
0.050115302 0.050061867 0.049995396 0.050167803 0.050253037 0.050212644
0.050363243 0.050232887 0.0503093 0.050371267 0.050359797 0.050301377
0.050278313 0.050305109 0.050329816 0.05021774 0.050189033 0.050267082
0.050293703 0.05033949 0.050259277 0.050269879 0.050090957 0.05015735
0.050025821 0.050174709 0.050187469 0.049917378 0.049875561 0.050074723
0.05003833 0.049935915 0.049894311 0.049938571 0.049984649 0.049857195
0.049831338 0.049765151 0.049822196 0.049731765 0.049636468 0.049624979
0.049632277 0.049745597 0.049755961 0.049550146 0.049654581 0.049612612
0.04959593 0.049634606 0.049618665 0.049556967 0.04966851 0.049710747
0.049713206 0.04971851 0.049499005 0.049499005 0.049660165 0.049391121
0.049409349 0.0496004 0.049702793 0.04944317 0.049574286 0.049576376
0.049621403 0.0496681 0.049598757 0.049619261 0.049601678 0.049609803
0.049658291 0.049730193 0.049693856 0.049590927 0.049889699 0.050036564
0.049870845 0.049863666 0.04987317 0.05001118 0.049977735 0.04988363
0.050065752 0.050233606 0.050049663 0.050168365 0.050260533 0.05030337
0.050322458 0.050177652 0.050337024 0.05045341 0.050348621 0.050360393
0.050381511 0.050401092 0.050418533 0.050378244 0.05052904 0.050557099
0.050455734 0.050409194 0.050429281 0.050405692 0.050409913 0.050371196
0.050436322 0.050206851 0.05033125 0.050506819 0.050397493 0.050248004
0.050174002 0.050129052 0.049986154 0.050234184 0.050011218 0.049972102
0.050101507 0.050190412 0.050020467 0.050112203 0.050199278 0.050124411
0.050243706 0.050170563 0.050157081 0.050060574 0.050002664 0.050203167
0.050336588 0.050300654 0.050472662 0.050285347 0.05038986 0.050486334
0.050438292 0.050346509 0.050353669 0.050407529 0.050454464 0.050269891
0.050250091 0.050318107 0.050285514 0.050359968 0.050342634 0.050331019
0.050132319 0.050133239 0.050077528 0.050269507 0.050211214 0.049940828
0.049857281 0.050077967 0.050013054 0.049885035 0.049859829 0.049938384
0.049942736 0.0497909 0.049719658 0.049723793 0.049793914 0.049660586
0.049617436 0.049581237 0.049527343 0.049641814 0.049681589 0.049456377
0.049597386 0.049536817 0.049569651 0.049548618 0.049523931 0.049453128
0.049521841 0.049573269 0.049676243 0.049643498 0.049385007 0.049385007
0.049524322 0.049284723 0.049347378 0.049474735 0.04967048 0.04932547
0.049456697 0.04950856 0.049559299 0.049611405 0.04949072 0.049508959
0.049491469 0.049532704 0.049616981 0.04965264 0.04959156 0.049508508
0.049808107 0.05001156 0.049846768 0.049853288 0.049844261 0.049982488
0.049947329 0.049875986 0.050086379 0.050248317 0.050043762 0.050155975
0.050324168 0.050374161 0.050379451 0.05019889 0.05032168 0.050516136
0.050441846 0.050454088 0.050465807 0.050459016 0.050506942 0.0505106
0.050649788 0.050625462 0.050558127 0.050513998 0.050560813 0.05050496
0.050429069 0.05046428 0.050539404 0.050210133 0.050408356 0.050639451
0.050546575 0.050372034 0.050208006 0.050189 0.050017066 0.050239064
0.050000068 0.05003405 0.050159503 0.050176337 0.050112311 0.050194643
0.050207034 0.05015371 0.050298296 0.050293487 0.050207648 0.050103627
0.050046757 0.05023722 0.050426684 0.050401002 0.050571509 0.050347455
0.050496623 0.050576661 0.050522421 0.050439484 0.050430641 0.050511632
0.050543107 0.050326064 0.050331134 0.050397623 0.050315809 0.05037915
0.050391126 0.050369062 0.05021324 0.050124526 0.050105594 0.050336625
0.050251093 0.049977601 0.049829412 0.050042111 0.049949855 0.049837053
0.049840964 0.049925726 0.049872685 0.049696222 0.049624909 0.049695753
0.049726661 0.049588244 0.049567476 0.049514078 0.049432315 0.049520615
0.049558435 0.049347688 0.049576607 0.049457427 0.049529873 0.049444407
0.049448751 0.049360082 0.049387068 0.049435608 0.049586445 0.049530245
0.049306028 0.049306028 0.049365472 0.049197644 0.049304411 0.049378391
0.049639713 0.049215443 0.049351152 0.049429767 0.049460445 0.049506661
0.049350239 0.049392667 0.04939118 0.049453437 0.049564458 0.049527761
0.049473852 0.049461093 0.049725797 0.049943421 0.049771007 0.049835227
0.049807947 0.049921833 0.049917657 0.049916971 0.050123218 0.050261658
0.050064977 0.050133098 0.050379828 0.050425079 0.050416805 0.05023475
0.050301962 0.050565857 0.05051158 0.050519474 0.050564535 0.050492935
0.05060463 0.050661445 0.050805833 0.050706044 0.050667491 0.050612073
0.050665628 0.05063463 0.0504562 0.050598595 0.05059538 0.050228525
0.05049295 0.050770491 0.050710082 0.050470065 0.050229006 0.050240006
0.05006209 0.05023405 0.050002083 0.050117064 0.050213471 0.050143257
0.05023716 0.050265748 0.050199542 0.050170507 0.050323565 0.050416589
0.05025813 0.050212529 0.050125245 0.050264575 0.050513275 0.050507691
0.050654311 0.050380491 0.050614163 0.050647501 0.050610416 0.050571188
0.050525535 0.050612487 0.050591603 0.050372358 0.050414216 0.050511781
0.05039084 0.050396822 0.050405432 0.050399184 0.050337795 0.050146047
0.050103772 0.050337255 0.050275244 0.050012819 0.049788274 0.049986396
0.049873535 0.049798146 0.049836222 0.049894955 0.049778286 0.049593233
0.049570493 0.049677134 0.049632002 0.049510207 0.049451988 0.049404137
0.049326722 0.049411923 0.049414452 0.049226306 0.049592331 0.049378
0.049461 0.049322125 0.04937261 0.049282618 0.049298484 0.049317241
0.049445942 0.049375009 0.049281009 0.049281009 0.049212534 0.049118962
0.049272396 0.049318418 0.049580086 0.04912816 0.049280461 0.049362451
0.049330838 0.049371626 0.049180392 0.049270805 0.04931353 0.04938015
0.049500953 0.049369641 0.049344797 0.049450852 0.049675424 0.049818169
0.04963465 0.049803004 0.049762327 0.049822424 0.049883701 0.049992986
0.050171494 0.05027514 0.050125517 0.05011588 0.050411727 0.050465956
0.050408904 0.050275423 0.050327122 0.050623946 0.05054811 0.050535765
0.050681792 0.050501633 0.050688673 0.050823472 0.050977778 0.05083647
0.050801214 0.050695777 0.050706733 0.050788112 0.050494537 0.050745055
0.050617091 0.050281823 0.050602093 0.050855543 0.050863601 0.050474029
0.050266292 0.050263006 0.050121322 0.050232172 0.050009362 0.050163228
0.050235309 0.050090216 0.050366025 0.050307274 0.050171077 0.050161775
0.050305042 0.050516326 0.050308518 0.050362829 0.0502197 0.050301328
0.050574973 0.050615098 0.050732292 0.050374933 0.050730377 0.050711527
0.050698943 0.050697286 0.050636724 0.050727423 0.050624374 0.050412204
0.050486028 0.050633445 0.050491538 0.0504083 0.050396226 0.050434317
0.05047977 0.050199151 0.0500945 0.050255541 0.050243892 0.050047755
0.049762055 0.049934462 0.049812987 0.049783118 0.049853057 0.049859077
0.049671158 0.049495634 0.049539991 0.04966332 0.049526703 0.04941259
0.049271144 0.049262527 0.049189936 0.049341854 0.04928777 0.049099788
0.049627867 0.049313553 0.049367335 0.049189672 0.049264751 0.04923204
0.049254265 0.049222443 0.049284816 0.049190167 0.049305033 0.049305033
0.049083561 0.049043383 0.049251396 0.049278572 0.049466845 0.049079683
0.049245272 0.049320493 0.049195983 0.049234096 0.049018417 0.049153537
0.049255032 0.04931232 0.049431667 0.049232569 0.049231276 0.049462933
0.049658526 0.049645878 0.049471531 0.04974978 0.049713496 0.049724314
0.049864553 0.050087005 0.050217085 0.050267812 0.050214909 0.050123416
0.050408401 0.050512973 0.050357841 0.050309706 0.050425496 0.050695326
0.050560404 0.050508201 0.050823245 0.050505057 0.050754759 0.051005147
0.051123608 0.051026657 0.050961755 0.05077273 0.050710611 0.050933488
0.050556 0.050880067 0.050646901 0.050390013 0.050722864 0.050886102
0.050926395 0.050371047 0.050329614 0.050243419 0.050166968 0.050243627
0.050021112 0.050109748 0.050202113 0.050021268 0.050448019 0.050300438
0.050128091 0.050132092 0.050236177 0.050573092 0.050362047 0.050507002
0.050314285 0.050371341 0.050588142 0.050720345 0.050800804 0.050368026
0.050839331 0.050769787 0.050790906 0.050773248 0.050760463 0.05088079
0.050672557 0.050469853 0.050546087 0.050713129 0.050594699 0.050424285
0.050383784 0.050476011 0.050590467 0.050252154 0.050115909 0.050132215
0.050152946 0.050087657 0.049795389 0.049901128 0.049784429 0.049820326
0.04989228 0.049836501 0.049573161 0.049415644 0.049507808 0.049632668
0.049429342 0.049297433 0.049071599 0.049136296 0.049037721 0.049310673
0.049190369 0.048985887 0.04965445 0.049272846 0.049275715 0.049058884
0.049113117 0.049214378 0.049216203 0.049145021 0.049132794 0.049004685
0.04934945 0.04934945 0.048978701 0.048970167 0.049242608 0.049247295
0.049317937 0.049071163 0.049209811 0.049289521 0.04908355 0.049114145
0.048907097 0.049056891 0.049192294 0.04924522 0.049370512 0.049177665
0.049167491 0.049468074 0.04965179 0.049470745 0.04933745 0.049664669
0.049675256 0.049684618 0.049887527 0.050170984 0.050237615 0.050224774
0.050309904 0.050165996 0.05036559 0.050569076 0.050300125 0.05034449
0.050578609 0.050760951 0.050577369 0.050475184 0.050980266 0.050541572
0.050827894 0.051210616 0.051207323 0.051232804 0.051130001 0.050866
0.050754651 0.051031247 0.050645709 0.051025208 0.050699085 0.050573491
0.050783508 0.050878789 0.050851971 0.050199918 0.050412398 0.050173037
0.050169252 0.050255645 0.050029945 0.049945544 0.050117034 0.049941402
0.05042113 0.050237998 0.050077811 0.050106127 0.050124086 0.050574116
0.050403435 0.050603893 0.050405562 0.050473187 0.050566021 0.050816234
0.05085009 0.050419029 0.050938703 0.050824236 0.0508883 0.05079335
0.050886501 0.051078912 0.050748292 0.050577745 0.050610676 0.050717682
0.050682526 0.050461542 0.050394148 0.050510641 0.050612297 0.050266664
0.050178468 0.050043564 0.050056055 0.050128587 0.04991328 0.049894206
0.049788252 0.049917649 0.049922749 0.049827859 0.049497161 0.049372129
0.049457874 0.049561772 0.049351413 0.049194451 0.048922915 0.049062897
0.048917733 0.049281627 0.049107287 0.048907228 0.049635928 0.049253702
0.049220636 0.048940878 0.048939534 0.049222399 0.049130704 0.04908102
0.048999235 0.048862956 0.049360432 0.049360432 0.048887022 0.04889714
0.049220141 0.049230531 0.049186245 0.049085014 0.04912407 0.049237821
0.0490156 0.049018368 0.048872814 0.048993714 0.049101915 0.049174767
0.049332205 0.049225003 0.049160361 0.049432151 0.049625106 0.049352374
0.049270812 0.049558591 0.049665913 0.049727798 0.049958374 0.05020475
0.050209403 0.050163001 0.0503884 0.050237995 0.050300241 0.050609913
0.050289299 0.050408751 0.050732829 0.05080099 0.050646793 0.050491922
0.051121157 0.050640948 0.050929941 0.05141104 0.051235009 0.051387005
0.051257644 0.051017225 0.05088605 0.051083211 0.05076341 0.051188495
0.050799627 0.050773047 0.050759558 0.050828289 0.050697505 0.050040234
0.050481368 0.050060123 0.050122533 0.050217316 0.05000424 0.049732063
0.050006088 0.049848471 0.050244149 0.050118696 0.050034989 0.050088003
0.050015587 0.050521348 0.050407112 0.050645847 0.050485507 0.050564796
0.05056902 0.050871339 0.050888296 0.050549962 0.051036011 0.050872102
0.050995026 0.050800152 0.051012147 0.051286399 0.050850343 0.05075274
0.050695725 0.050655589 0.050751619 0.050534025 0.050452869 0.050521772
0.050528798 0.050233334 0.050246865 0.050043192 0.050029699 0.05016439
0.050083134 0.049925577 0.049819 0.050039452 0.049894143 0.049814146
0.049446378 0.049376827 0.049399011 0.049449127 0.049298268 0.049138483
0.048872251 0.049040318 0.048866428 0.0492117 0.049025133 0.048874147
0.049545191 0.049244404 0.049208917 0.04885228 0.048784852 0.049225956
0.04898018 0.049023002 0.048874602 0.048807587 0.04928726 0.04928726
0.048801363 0.04882114 0.049138691 0.049233411 0.04910567 0.049086723
0.048974056 0.049143199 0.04899602 0.048942767 0.048904262 0.048967533
0.048992246 0.049099389 0.049328946 0.049322631 0.049168624 0.049346775
0.049566973 0.049329288 0.049279124 0.049473695 0.04969402 0.049827576
0.050046075 0.050157513 0.05013036 0.050126288 0.050437562 0.050317664
0.050255999 0.050615765 0.050355189 0.05052815 0.050837353 0.050826836
0.050811402 0.050593752 0.051206831 0.050803274 0.051060043 0.051550087
0.051250618 0.051456254 0.051310044 0.051244561 0.051091403 0.051134471
0.050923184 0.051344655 0.050949562 0.050909303 0.050671659 0.050752282
0.05056503 0.049977433 0.050479058 0.049936093 0.050034329 0.050064526
0.049903158 0.04956409 0.049888566 0.049716331 0.049939059 0.049927384
0.050014883 0.050053701 0.049955398 0.050438393 0.050364923 0.050648712
0.050530218 0.050613422 0.050640225 0.050892264 0.050925348 0.050744679
0.051144801 0.050916463 0.05111026 0.050864998 0.051139079 0.05144465
0.050972905 0.050977755 0.050800551 0.050586648 0.050812606 0.050646715
0.050570056 0.050506137 0.050386544 0.050200067 0.050277695 0.050118335
0.050121494 0.050193429 0.050246693 0.050004911 0.049868099 0.050105862
0.049771667 0.049771566 0.04940448 0.049410414 0.049347199 0.049324658
0.049272779 0.049136262 0.048912168 0.049032763 0.048878022 0.049092032
0.048948918 0.048873499 0.049374744 0.049233839 0.049209185 0.048801385
0.048679076 0.049182743 0.048794825 0.048957065 0.048765339 0.048837055
0.049125042 0.049125042 0.048722353 0.048744064 0.048968595 0.04923337
0.049043141 0.04905159 0.048806544 0.049013402 0.049000807 0.048877906
0.048963193 0.048979905 0.048909981 0.04901794 0.049340058 0.049378496
0.049131881 0.049239285 0.049499206 0.049388885 0.049343541 0.049460512
0.049752899 0.049920704 0.05010416 0.05003779 0.050027072 0.050155234
0.050453477 0.050383016 0.050284531 0.050599571 0.050489899 0.05069508
0.050885923 0.050874025 0.051071193 0.050784253 0.051227164 0.050999209
0.051196799 0.051593103 0.051300816 0.051467612 0.051328018 0.051506169
0.051321249 0.051248968 0.051133268 0.051461011 0.051105879 0.0509663
0.050572202 0.050687119 0.050532967 0.050037745 0.050365854 0.049833246
0.049922619 0.049776174 0.049716454 0.049496278 0.049749825 0.04952113
0.049572002 0.049675807 0.049990036 0.049978301 0.049948141 0.050353102
0.050309233 0.050626371 0.050519682 0.050623443 0.050775409 0.050915327