# vtk DataFile Version 3.0
axinsert(project(permute(???,2,0,1),0,L2),2)
ASCII
DATASET STRUCTURED_POINTS
DIMENSIONS 128 256 1
ORIGIN 0 0 0
SPACING 1 1 1
POINT_DATA 32768
SCALARS nrrd18086 float
LOOKUP_TABLE default
0.050032683 0.049965058 0.049995001 0.049988002 0.050017077 0.04999302
0.049963139 0.049994014 0.049992017 0.049989011 0.05000107 0.049954999
0.050002441 0.04999302 0.050010379 0.050050005 0.050039008 0.050010007
0.049988005 0.050005998 0.049945008 0.049953002 0.050022028 0.050011054
0.049998038 0.050065082 0.050042089 0.049973272 0.049982008 0.049977008
0.049994025 0.050012019 0.050028 0.0499941 0.049952026 0.050017141
0.05002455 0.049981121 0.049964253 0.049985152 0.050024018 0.050035007
0.05002607 0.050036076 0.050017349 0.049973141 0.050023369 0.050007652
0.049965207 0.049946539 0.049996998 0.050028201 0.049998011 0.050021283
0.050016019 0.049976464 0.049996004 0.050061155 0.050001528 0.049982078
0.049971834 0.049942013 0.049994145 0.050001014 0.049991135 0.050011169
0.05000829 0.049966998 0.05003804 0.050043374 0.049952019 0.049960002
0.050000008 0.050048001 0.049994353 0.049987044 0.050036002 0.049986083
0.050018001 0.050046079 0.050024282 0.049927585 0.049919099 0.050010003
0.050000079 0.050025024 0.049996093 0.049985114 0.049993999 0.050028
0.050032083 0.050013356 0.049945205 0.049976289 0.050019067 0.049996033
0.050004002 0.049979024 0.04997611 0.050036158 0.050025001 0.049991012
0.050030008 0.050027374 0.049960002 0.049976103 0.050021205 0.050033126
0.049981333 0.0500421 0.050017122 0.049929999 0.050017215 0.050017115
0.050007284 0.049978074 0.050012004 0.050064355 0.050016068 0.049958475
0.049956016 0.050008319 0.050007127 0.049972225 0.049950127 0.050011016
0.050027017 0.050027017 0.050026029 0.0498982 0.049988147 0.049947109
0.04998732 0.049963485 0.05002242 0.050074 0.050016094 0.049987003
0.049952067 0.049940016 0.050055068 0.049982999 0.049951036 0.050103061
0.050027013 0.049988281 0.050003063 0.050038159 0.050012007 0.049976137
0.050083131 0.050023284 0.049967177 0.050058153 0.049998034 0.049957018
0.049929 0.049970027 0.050019 0.050038043 0.050057001 0.049962003 0.049927
0.050115 0.050043516 0.049958006 0.049977291 0.04996815 0.049984328
0.050006002 0.050074048 0.050067008 0.05003101 0.050010078 0.050119162
0.050002553 0.049983077 0.049928319 0.049897272 0.05002626 0.049983308
0.049987134 0.050035026 0.049940169 0.050016008 0.050123192 0.049991079
0.050047144 0.049932417 0.049882133 0.049979489 0.050017036 0.049982861
0.049994092 0.050030351 0.049900167 0.050109111 0.050069198 0.049889117
0.049988244 0.050056275 0.050024454 0.049874008 0.049968015 0.050089013
0.049937081 0.050008006 0.050134014 0.050094999 0.049884059 0.049878281
0.049975183 0.049998116 0.050022174 0.050003033 0.050002053 0.050007328
0.050103083 0.050087437 0.049971171 0.04988312 0.0499731 0.049988411
0.049936999 0.049998116 0.049938999 0.049944025 0.050064009 0.050069001
0.050021023 0.050099127 0.050052036 0.049953111 0.049922224 0.049979106
0.050129022 0.049953196 0.050084021 0.050065093 0.049904134 0.050020214
0.050010182 0.050014131 0.049881082 0.049989045 0.050060011 0.050053161
0.049990054 0.049995005 0.050052535 0.049963001 0.049886182 0.049926043
0.050024346 0.049985081 0.049985081 0.049988192 0.049909044 0.049993135
0.049954031 0.049946081 0.049943045 0.050121151 0.050133001 0.050068069
0.050004084 0.049901009 0.04999201 0.050048999 0.049994003 0.04996001
0.050067011 0.049959 0.049956013 0.050007999 0.05005702 0.050176017
0.050085153 0.050067231 0.050018065 0.049966242 0.049919087 0.049984999
0.050012279 0.049884051 0.04995814 0.050058998 0.050018162 0.049980003
0.049986999 0.049997035 0.050146073 0.050027065 0.049968045 0.050043091
0.049983118 0.049961139 0.049948234 0.050042063 0.050081145 0.050032262
0.050063256 0.05013945 0.049980331 0.050050251 0.050022654 0.049842965
0.050004687 0.049971744 0.049951542 0.050004628 0.049897347 0.050042193
0.050092276 0.049998175 0.050084233 0.049976248 0.04993052 0.04997763
0.05004555 0.049965847 0.049965356 0.050033815 0.04990441 0.050057888
0.050015096 0.049929291 0.050029203 0.050081141 0.049951229 0.049830079
0.04997322 0.050082136 0.049947243 0.049975336 0.050075173 0.050071016
0.050025038 0.049960513 0.04993318 0.049999464 0.050020177 0.049957853
0.050024007 0.050062757 0.050099127 0.050083485 0.049925145 0.049872357
0.049978033 0.049991239 0.049942154 0.049954459 0.049954068 0.049965572
0.049980141 0.050076075 0.050101176 0.05010153 0.049998175 0.050013207
0.04994436 0.04992735 0.050091185 0.049989089 0.050025318 0.050023004
0.05000101 0.050045218 0.050015125 0.049927335 0.049817026 0.049974039
0.050002053 0.050034028 0.050035059 0.050124001 0.05005509 0.049911018
0.04986101 0.049964059 0.050030038 0.049934018 0.049934018 0.049985077
0.049951028 0.049982004 0.049981028 0.049949002 0.049940038 0.050097004
0.050108999 0.050088048 0.050053999 0.049900003 0.049955018 0.050015036
0.050014999 0.050012 0.05005201 0.049966011 0.049981054 0.050003018
0.050086126 0.050183047 0.050095052 0.050040036 0.050029013 0.049977094
0.049865041 0.050054032 0.050041225 0.049884051 0.049913339 0.050041001
0.050017055 0.049943019 0.050008029 0.050028067 0.050135102 0.050037105
0.049975138 0.050020184 0.05000506 0.050007336 0.049962163 0.05002138
0.050138209 0.050065618 0.050084632 0.050143082 0.049954668 0.050070781
0.050077915 0.049899507 0.049985755 0.049942058 0.049960371 0.049984831
0.049840208 0.050013602 0.050093599 0.049999658 0.050057527 0.050021585
0.049967557 0.049981885 0.050063711 0.04995298 0.04998666 0.050023325
0.049926449 0.049989462 0.049945142 0.049947545 0.049943153 0.050063036
0.049971115 0.049853105 0.050010223 0.050085369 0.049994193 0.049990829
0.049975343 0.050028104 0.050088137 0.049976282 0.049951132 0.050008565
0.050065193 0.049916152 0.050004221 0.05007799 0.050040126 0.050077345
0.049925134 0.049868401 0.04994823 0.050026383 0.050001252 0.049944703
0.049982376 0.049975824 0.049912471 0.050075423 0.05015938 0.050090708
0.049958307 0.050033554 0.049968332 0.049929593 0.050008297 0.050014175
0.049986292 0.04993004 0.050043032 0.050079204 0.050045028 0.049846306
0.049771 0.049950078 0.050050031 0.050055254 0.04995301 0.050167017
0.050009999 0.049901038 0.049872003 0.04996901 0.050045002 0.049954016
0.049954016 0.049979005 0.049991019 0.049974017 0.049991023 0.049948018
0.049924031 0.050048999 0.050085004 0.050067998 0.05008702 0.049946006
0.049908001 0.050024055 0.050035015 0.05000601 0.050030001 0.050006028
0.050036073 0.050046023 0.050085276 0.050122 0.050075021 0.050030001
0.050058018 0.049988005 0.049880072 0.050075088 0.050023068 0.049923029
0.049871273 0.049950007 0.050066009 0.0499711 0.050008018 0.050056133
0.050147064 0.050052237 0.049998105 0.050002486 0.050031126 0.0500178
0.049963146 0.05005369 0.050157551 0.050129734 0.050148256 0.050141301
0.049937241 0.050092556 0.050125614 0.049968082 0.049940545 0.049916517
0.0499283 0.049971987 0.049850848 0.049949184 0.050097141 0.0499974
0.050048992 0.049997289 0.049969394 0.050019238 0.050056804 0.049956031
0.050022829 0.049976178 0.049930263 0.049956005 0.049874265 0.04992535
0.049858157 0.05006209 0.049995147 0.049870122 0.050066292 0.050071448
0.050041173 0.050026674 0.04988727 0.050012276 0.050081242 0.049958173
0.049997147 0.050026495 0.050120261 0.049964912 0.050004084 0.050018933
0.049978364 0.05007641 0.049939372 0.049911555 0.04996895 0.049996905
0.050023604 0.049973819 0.049991831 0.049976919 0.04990489 0.05005898
0.050164748 0.050083805 0.049963813 0.050024997 0.049945608 0.049922708
0.0499635 0.050004452 0.049947232 0.04991227 0.050071236 0.05004238
0.050049018 0.049855389 0.049743123 0.049920209 0.050077081 0.050057191
0.049914069 0.050137118 0.049957 0.049904 0.049899999 0.049989026
0.050028998 0.049958006 0.049958006 0.049966 0.050024014 0.04997804
0.049981009 0.049953014 0.049899999 0.050023001 0.050101019 0.050061006
0.050043013 0.049962111 0.049902033 0.050048102 0.050048005 0.049986046
0.050020013 0.050051022 0.050077002 0.050083999 0.050047029 0.050064042
0.050081018 0.050037004 0.050052002 0.05001704 0.049942024 0.050052051
0.049996004 0.049971018 0.049825098 0.049852006 0.05013901 0.050016087
0.050014019 0.050076179 0.050162043 0.050063234 0.050039105 0.050030533
0.050072383 0.050008912 0.049951416 0.050125793 0.050162293 0.050171781
0.050187618 0.050132927 0.049993537 0.050123148 0.050139017 0.050007191
0.049914472 0.049920347 0.049885713 0.049936876 0.049865771 0.049927846
0.050114844 0.049987219 0.050035577 0.049917921 0.049951654 0.050074629
0.050028063 0.049954135 0.050014015 0.049886778 0.049912293 0.049971446
0.049824443 0.049901173 0.049859352 0.050058383 0.049988277 0.049899302
0.050113555 0.050038472 0.050046291 0.050022386 0.049876191 0.050027564
0.050045293 0.049948387 0.05003624 0.050051719 0.050147474 0.050078757
0.050016779 0.049933981 0.049945809 0.050074812 0.049957778 0.049982078
0.050016839 0.049960684 0.049994446 0.049977068 0.050009225 0.049981326
0.049925312 0.050048556 0.050134245 0.050099008 0.049990498 0.049994297
0.049912926 0.04991005 0.049943876 0.049956877 0.049924292 0.049941823
0.050070461 0.049971666 0.050046094 0.049907606 0.049727365 0.0499206
0.050051417 0.050036207 0.049935263 0.050071329 0.049919039 0.049909133
0.049917057 0.04996914 0.049978003 0.049964003 0.049964003 0.049950998
0.050049055 0.049978007 0.049972069 0.049975999 0.049891006 0.049995001
0.050112106 0.050080001 0.049954042 0.049925279 0.049910232 0.050065301
0.050067198 0.04999917 0.050045084 0.050065044 0.050070111 0.050083153
0.050021145 0.050026197 0.050122302 0.050046034 0.050013274 0.050057184
0.050014075 0.050039999 0.049995046 0.050009999 0.049793001 0.049819
0.050187003 0.050048023 0.05004603 0.050081179 0.05016204 0.050086144
0.050079145 0.050089363 0.050113603 0.050014611 0.049956907 0.050199836
0.050168872 0.050163809 0.050181594 0.050123755 0.050101619 0.050150119
0.050127923 0.050019998 0.049949203 0.049948379 0.049868658 0.049882371
0.049837679 0.049967665 0.050133515 0.049969852 0.050012104 0.049859226
0.049934562 0.050093055 0.049987402 0.04994731 0.049968265 0.049816776
0.049875848 0.049981374 0.049802765 0.049895301 0.049927708 0.050038904
0.049970463 0.04993885 0.050114844 0.049999543 0.050024502 0.049990408
0.049924348 0.050052915 0.050034508 0.049953066 0.050060485 0.050093397
0.050125919 0.050168935 0.050043728 0.049880356 0.049951263 0.050072704
0.049979217 0.050065149 0.050051596 0.049947634 0.049945444 0.049940903
0.05003272 0.049989145 0.049937833 0.050048225 0.050090857 0.050116573
0.050005972 0.049944617 0.049905177 0.049920727 0.049926408 0.049889531
0.049923562 0.049968712 0.050034631 0.049926076 0.050037384 0.049947884
0.049745604 0.049931355 0.049981583 0.050008427 0.049957316 0.050030507
0.049899187 0.049909309 0.049909204 0.049893178 0.049927004 0.049963024
0.049963024 0.049949002 0.050043017 0.04996502 0.04996407 0.05000703
0.049905028 0.049942002 0.050081279 0.050100092 0.049883239 0.049878404
0.049894433 0.05006364 0.050088607 0.050039534 0.050081331 0.050038308
0.050017659 0.050072815 0.050027732 0.050009657 0.050163828 0.050043374
0.049977962 0.0500925 0.05007067 0.050068174 0.050021298 0.050035056
0.049806204 0.049865998 0.050195005 0.050053 0.050099 0.050088126
0.050147023 0.050118059 0.050112121 0.050149206 0.050138488 0.050053317
0.05000313 0.05025195 0.0501647 0.050134785 0.050179429 0.050134048
0.050182834 0.050156776 0.050124783 0.050037827 0.050044339 0.049974047
0.049876619 0.049840517 0.049794246 0.050027829 0.050128106 0.049947377
0.049971521 0.049853273 0.049936667 0.050055448 0.049933657 0.049936514
0.049932461 0.049815126 0.049835883 0.049949709 0.049808174 0.049888909
0.049988974 0.050007351 0.049975608 0.049978625 0.050056972 0.049968686
0.050016806 0.049982797 0.04997896 0.050069321 0.050065089 0.049950939
0.05007901 0.050142348 0.050075598 0.050195642 0.050073639 0.049878132
0.049987901 0.050072923 0.050004911 0.050149422 0.050064337 0.049947746
0.049917299 0.049900535 0.050036702 0.049996331 0.049935825 0.050053157
0.050061923 0.050114751 0.049993612 0.0498963 0.049922921 0.049948663
0.049912214 0.049827561 0.049937326 0.049964864 0.049978036 0.049920686
0.050014988 0.049956255 0.049798921 0.049918026 0.049890697 0.049972758
0.049956352 0.050023619 0.049878281 0.049908329 0.0498823 0.049803134
0.049892008 0.049937021 0.049937021 0.049960002 0.050003 0.049938116
0.049955033 0.050008155 0.049934112 0.049882054 0.05002442 0.05009535
0.049849655 0.049871568 0.0498555 0.050031945 0.050085973 0.050069284
0.050094943 0.049996328 0.049956497 0.05007505 0.050048556 0.050012756
0.050181501 0.050029606 0.049979813 0.050109208 0.050107777 0.050125793
0.050054953 0.050038505 0.049878046 0.049976021 0.050185047 0.050037045
0.05015609 0.050116006 0.050129004 0.050145 0.05014601 0.050198071
0.050150167 0.050126147 0.050090838 0.050276015 0.050140034 0.050129715
0.050223183 0.050174516 0.050202064 0.050140593 0.050136827 0.050078861
0.050158832 0.049975809 0.049902909 0.04984564 0.049786687 0.050056007
0.050091665 0.049916752 0.04990587 0.049872298 0.049955219 0.04998564
0.049877744 0.049924791 0.049913507 0.049867477 0.049809549 0.049890239
0.049836434 0.049866803 0.049995102 0.049972475 0.050005756 0.050007008
0.049971998 0.04996993 0.050045289 0.050015528 0.050009944 0.050071888
0.050113048 0.049942587 0.05010502 0.050180204 0.050042529 0.050183024
0.050094195 0.049916383 0.050033361 0.050073259 0.050026409 0.050209537
0.050076362 0.049948148 0.049925361 0.049891729 0.050017636 0.05000107
0.049927838 0.050059713 0.050056852 0.050090671 0.049959049 0.049873803
0.049942821 0.04995795 0.049912509 0.049790155 0.049949929 0.049932163
0.049908102 0.049919456 0.049981833 0.049936831 0.04984336 0.04989012
0.049809072 0.049928032 0.049935527 0.050005697 0.049837261 0.049910273
0.04985027 0.049740091 0.049865056 0.049888007 0.049888007 0.049965005
0.049947001 0.049908169 0.049941037 0.049962267 0.049953319 0.049845248
0.049965516 0.050053727 0.04983123 0.049914002 0.049820688 0.049978282
0.050034396 0.050051518 0.050073162 0.049968243 0.049924564 0.050072558
0.050058912 0.050024588 0.050176717 0.050015904 0.050026026 0.050103556
0.050136287 0.050183054 0.050079338 0.050022695 0.049988665 0.050116386
0.050176602 0.050025407 0.050199568 0.050163168 0.05012821 0.050167106
0.050187092 0.050240003 0.050174002 0.050214034 0.050200302 0.050285708
0.050110422 0.050159585 0.05029979 0.050243504 0.050193876 0.050126594
0.050158966 0.05013803 0.050236188 0.049970929 0.049946498 0.049899966
0.049829319 0.050027426 0.050032079 0.049876679 0.049835082 0.049887527
0.04996923 0.049907595 0.049838778 0.049911156 0.04988848 0.049932629
0.049802411 0.049826663 0.04987745 0.049844284 0.049950283 0.049945362
0.050043035 0.050017823 0.049914137 0.050011333 0.050103933 0.050065368
0.050024871 0.0500797 0.050143298 0.049945142 0.0501437 0.050195977
0.05005889 0.050168868 0.050103724 0.049989186 0.050069232 0.050074074
0.050035298 0.050226104 0.050108213 0.049950283 0.049957231 0.049926348
0.049999885 0.050011761 0.049919184 0.050057374 0.050063733 0.05006044
0.04992662 0.049881626 0.049938947 0.049927969 0.049928587 0.049781363
0.049942467 0.049883578 0.049829971 0.049891464 0.049948949 0.04989668
0.049836017 0.04987096 0.049758755 0.049870271 0.049904853 0.049949754
0.049782258 0.049908273 0.0498152 0.049710095 0.049830094 0.049832005
0.049832005 0.049950004 0.049896013 0.049873158 0.049921136 0.049888305
0.049939666 0.049837593 0.049907696 0.049977325 0.049800944 0.049963929
0.049813505 0.049922902 0.049941346 0.049983021 0.050029173 0.049961451
0.049927283 0.050047293 0.050049238 0.050036788 0.050156042 0.050011788
0.050096158 0.050091852 0.050161388 0.050221283 0.050097805 0.050010793
0.050095905 0.050246831 0.050181411 0.050044615 0.050229721 0.050212167
0.050155047 0.050191667 0.050232682 0.050289288 0.050227236 0.050301015
0.050301004 0.050305165 0.050114077 0.05020738 0.050370373 0.050325923
0.05021124 0.050148472 0.050188974 0.050198127 0.050254021 0.049990099
0.050000992 0.049973205 0.049901973 0.049961947 0.049962256 0.049831226
0.049798205 0.049890023 0.049958128 0.049840488 0.049829997 0.049890555
0.049847495 0.049975764 0.049808901 0.049781952 0.049905408 0.04984216
0.049891613 0.049929332 0.050070472 0.050016575 0.049912546 0.050072901
0.050168592 0.050111994 0.050044622 0.050111677 0.050157744 0.049974114
0.050185062 0.050193038 0.050114978 0.050171785 0.050120335 0.050094556
0.050104447 0.050076973 0.050041724 0.050205234 0.050151519 0.049953766
0.04999055 0.049993906 0.049996525 0.050021574 0.049914476 0.050042525
0.050065368 0.050032187 0.049912039 0.049903836 0.049905632 0.049879275
0.049940772 0.049787123 0.049905721 0.049824301 0.049753368 0.049835999
0.049912594 0.049840856 0.04977414 0.049854185 0.049730584 0.049796656
0.049858216 0.049869828 0.049731366 0.049889352 0.049781173 0.049694158
0.049784079 0.049777009 0.049777009 0.049912002 0.049845066 0.049822193
0.04989545 0.049817424 0.049886085 0.04984118 0.049841166 0.049884338
0.049752876 0.049971353 0.049827397 0.049881134 0.049840301 0.049890548
0.049975924 0.049963456 0.049939081 0.050005585 0.050033443 0.05004004
0.050120573 0.05001384 0.050156623 0.050095286 0.050178364 0.050233029
0.05012257 0.050022971 0.0501757 0.050331935 0.050206948 0.050106112
0.050260875 0.050260302 0.050210733 0.0502299 0.050279848 0.050350171
0.05030793 0.050380301 0.05037123 0.050351042 0.050180007 0.050263155
0.05041112 0.050399344 0.050271571 0.050217085 0.050235722 0.050242946
0.050234448 0.050045639 0.050059963 0.050033838 0.049968392 0.049903106
0.049898315 0.049787894 0.049814399 0.049885716 0.049914163 0.049794499
0.049844436 0.04985287 0.049799599 0.049986053 0.049818505 0.049768239
0.049901545 0.049864881 0.049856022 0.049922571 0.050080914 0.050020617
0.049957201 0.050128594 0.050217245 0.050156351 0.05008544 0.050169732
0.050181329 0.050034788 0.050220817 0.05018878 0.050183069 0.050189711
0.050158951 0.050216421 0.050159011 0.050090112 0.050062113 0.050174493
0.050190538 0.049958739 0.05001983 0.050074089 0.049996227 0.050016407
0.049923193 0.050020263 0.05005281 0.050006002 0.049912114 0.049923979
0.049863514 0.049845181 0.049924087 0.049784444 0.049848493 0.049750753
0.049687143 0.049777415 0.04986589 0.049780622 0.049686987 0.049817286
0.049700525 0.049709424 0.049788687 0.049790088 0.049686641 0.049848519
0.049751211 0.049667276 0.049732063 0.049717039 0.049717039 0.049860004
0.049773145 0.049741376 0.049856957 0.049769834 0.049800541 0.049831245
0.04976508 0.049790874 0.049702045 0.049920976 0.049839105 0.049850184
0.049765345 0.049806237 0.049919017 0.04995238 0.049928978 0.049972843
0.050032161 0.050030645 0.050070934 0.050012108 0.050185271 0.050114829
0.05017757 0.050222609 0.050165694 0.05006852 0.050228484 0.050364669
0.050249994 0.050200962 0.050300248 0.050318651 0.050297253 0.050287895
0.050329495 0.050416641 0.050399117 0.050454132 0.050415993 0.050428644
0.050308194 0.050335012 0.050434016 0.050452072 0.05035517 0.050322615
0.050301224 0.050276484 0.050215833 0.050123427 0.0501264 0.050076857
0.050006423 0.049881585 0.049858436 0.049757052 0.049868841 0.049873434
0.049845304 0.049770717 0.049866937 0.049797069 0.049761798 0.049967453
0.049823388 0.049786523 0.049869914 0.04989389 0.0498574 0.049916074
0.050078206 0.050045025 0.050021913 0.050175399 0.0502421 0.050206777
0.050155621 0.0502441 0.050233062 0.050123118 0.050255734 0.050206587
0.050238393 0.050216317 0.05022075 0.050326001 0.050236177 0.050129045
0.0501111 0.050156284 0.050212 0.049972683 0.05005724 0.050136872
0.049981821 0.049993269 0.049953647 0.050005373 0.050023604 0.049973801
0.049915191 0.049935639 0.04983414 0.049833149 0.049870901 0.049769565
0.04978361 0.049668223 0.049630549 0.049721796 0.049804665 0.049721181
0.049600475 0.049746417 0.049649753 0.049616735 0.049698584 0.049710758
0.049632143 0.049781784 0.049719319 0.049628384 0.049679104 0.049637083
0.049637083 0.049802016 0.049670249 0.04963373 0.049798504 0.0497397
0.049697045 0.049785897 0.049690504 0.04971284 0.049668409 0.049830601
0.049818698 0.049811043 0.049718942 0.049747694 0.049864218 0.049917925
0.049877591 0.04995732 0.050049577 0.050010446 0.050018925 0.050003085
0.050178785 0.050136261 0.050150387 0.050199658 0.050226051 0.05013454
0.050267942 0.05036889 0.050308928 0.050311964 0.050343953 0.050395276
0.050408915 0.050367955 0.050392896 0.050483782 0.050489981 0.050527707
0.050458331 0.050528735 0.050472736 0.050433077 0.050465025 0.050491001
0.05043802 0.050434265 0.050372642 0.05031893 0.050223362 0.050202191
0.050211672 0.050117943 0.050025828 0.049902525 0.049849678 0.049742691
0.049926415 0.049843919 0.049767405 0.049761072 0.04987821 0.049734108
0.049741063 0.049935792 0.049823534 0.049831733 0.049837418 0.049915366
0.049876731 0.049904708 0.050074436 0.05009276 0.050091643 0.050231472
0.050251421 0.050265804 0.050255481 0.050324336 0.050302405 0.050228059
0.050305016 0.050267875 0.050280023 0.050250649 0.050292023 0.050396949
0.050323598 0.050201718 0.050188698 0.050153717 0.050216515 0.050008159
0.050113518 0.050169945 0.049953729 0.049959719 0.050002936 0.050002519
0.049980227 0.049933638 0.049914971 0.049934998 0.049817029 0.049817283
0.049795568 0.049747605 0.049714688 0.049591731 0.049579736 0.049654964
0.049732547 0.049669378 0.049520075 0.049651138 0.049576391 0.049532499
0.04960018 0.049619906 0.049550988 0.049688194 0.049668521 0.04958941
0.049627252 0.049526077 0.049526077 0.049734049 0.049541477 0.049514133
0.04971201 0.049712848 0.049583651 0.04970181 0.049624193 0.049653925
0.049652956 0.049729418 0.049755808 0.049747575 0.049683616 0.04970951
0.049814656 0.049859922 0.049791768 0.049943201 0.050075501 0.049990315
0.049977008 0.049987573 0.050151434 0.050140742 0.050103161 0.050177336
0.05029247 0.050196812 0.050300539 0.050380509 0.050383512 0.050420161
0.050385956 0.050478186 0.050535467 0.050470687 0.050478827 0.050557047
0.050577011 0.050606325 0.050524537 0.050641209 0.050642893 0.050555635
0.050527323 0.050544083 0.050517011 0.050529055 0.05044318 0.050390489
0.050254986 0.050271843 0.050319038 0.050179746 0.050052717 0.049947746
0.049868874 0.049741473 0.049960822 0.049792919 0.049696349 0.04975545
0.049869198 0.049680971 0.049736444 0.049902964 0.049818873 0.049885795
0.049834896 0.049927231 0.049889099 0.04989142 0.050081845 0.050158747
0.050166596 0.050311938 0.050269339 0.050338857 0.050380245 0.050406635
0.050373871 0.050337881 0.050386149 0.050372794 0.050322633 0.05029846
0.050361872 0.050426256 0.050404627 0.050300833 0.050277334 0.050165758
0.050211456 0.050067611 0.050192084 0.050183199 0.049930636 0.049932588
0.050049737 0.050001509 0.049928367 0.049889654 0.049910635 0.049918376
0.049791079 0.049768023 0.04972212 0.049721319 0.049645547 0.049535837
0.04952617 0.04956444 0.049649384 0.04961459 0.049437106 0.049551643
0.049489275 0.049467269 0.049502224 0.049512215 0.049442232 0.049563713
0.049580883 0.049554382 0.04956748 0.049391031 0.049391031 0.049645122
0.049405925 0.049403414 0.049599499 0.049679745 0.049465287 0.0495882
0.049562667 0.04960658 0.049639564 0.04963167 0.049659926 0.04965546
0.049635228 0.049678538 0.049765524 0.049781766 0.049690478 0.049909081
0.050089989 0.049978413 0.049953867 0.049969096 0.050120749 0.05012776
0.050056808 0.050170105 0.050350785 0.050239906 0.050323687 0.050418179
0.050469697 0.050520465 0.050429009 0.050542049 0.050655153 0.050590258
0.050588816 0.050643835 0.050665513 0.05069726 0.050629791 0.050767221
0.050793722 0.050691009 0.050629154 0.050638475 0.050606128 0.050600003
0.050519004 0.050498255 0.050291613 0.05033952 0.050443552 0.050275378
0.050110884 0.049991019 0.049901839 0.049742982 0.049958836 0.049726501
0.04965017 0.049750742 0.049836025 0.049656682 0.049745955 0.049868878
0.049811266 0.049933594 0.04987612 0.049936924 0.04989142 0.049886167
0.05010251 0.05023982 0.050251823 0.050415732 0.050312467 0.05042972
0.050512645 0.050496299 0.050449334 0.050446682 0.050498318 0.050500702
0.0503802 0.050368007 0.050429404 0.050439063 0.050467957 0.050403934
0.050361808 0.050197065 0.050205093 0.05013901 0.050281998 0.050196491
0.049929347 0.049912509 0.050072163 0.049982801 0.049874838 0.049851567
0.049901251 0.04987843 0.049736347 0.049684346 0.049663339 0.049683161
0.049572442 0.049493879 0.049465887 0.049456425 0.049546935 0.049538087
0.049343079 0.04946832 0.049398981 0.049415603 0.049401909 0.049400102
0.049320523 0.049417216 0.049454402 0.049508382 0.049487606 0.049254999
0.049254999 0.049524244 0.049279489 0.049316537 0.049475849 0.049642935
0.049346782 0.049461458 0.049495351 0.049548134 0.049600963 0.049526732
0.049546298 0.049545806 0.049566422 0.049641151 0.04970127 0.049685407
0.049597058 0.04984834 0.050076015 0.049959064 0.049941588 0.049949627
0.050089873 0.05010308 0.050034087 0.050185125 0.050394818 0.050267402
0.050334964 0.050478157 0.050561309 0.050607644 0.050476998 0.050579458
0.050753042 0.05071393 0.050712723 0.050749388 0.050757494 0.050806057
0.050774381 0.050916571 0.05092451 0.050831769 0.050760102 0.050774157
0.050720312 0.050658058 0.05061803 0.050622243 0.050320316 0.050420508
0.050576281 0.050407428 0.050197158 0.050020434 0.049934685 0.049743269
0.049924672 0.049658086 0.04963506 0.049743954 0.049775779 0.04966829
0.049763437 0.04982847 0.04979746 0.049963988 0.049951803 0.049953725
0.049905278 0.049903646 0.050132036 0.050332528 0.050352708 0.050529197
0.050377756 0.050541975 0.050638206 0.050598722 0.050546173 0.050555136
0.050626058 0.050623618 0.050453775 0.050460432 0.05051209 0.050465159
0.050516799 0.050489314 0.050435245 0.050258581 0.050205231 0.050198693
0.05036144 0.050223626 0.049946137 0.049889527 0.050058272 0.049938671
0.049823735 0.049822856 0.049880099 0.04981048 0.049649581 0.049592018
0.04961941 0.04962229 0.049494527 0.049439874 0.049387973 0.049339689
0.04942641 0.049426548 0.049235854 0.049414083 0.049308077 0.049362298
0.049291439 0.049297344 0.049202036 0.04926765 0.049306832 0.049428508
0.049374457 0.049144015 0.049144015 0.049376383 0.04917175 0.049254563
0.049363762 0.049600471 0.049231995 0.049344502 0.04941899 0.049464103
0.049520586 0.049397435 0.049421258 0.049436137 0.049486075 0.049592014
0.049603496 0.0495678 0.049525544 0.049777005 0.050024118 0.049906783
0.049926095 0.049926031 0.050045751 0.050070997 0.050048433 0.050224289
0.050429668 0.050296742 0.050337639 0.050544187 0.050645579 0.050675727
0.050531562 0.050600942 0.050834112 0.050826237 0.050826147 0.050874297
0.050844222 0.050926659 0.050950229 0.051097039 0.051052898 0.050981402
0.050904024 0.050925411 0.050869294 0.050722022 0.050751008 0.050738659
0.050352268 0.050527319 0.050707482 0.050565816 0.050278626 0.050033502
0.049956877 0.049743898 0.049870856 0.049593247 0.049639259 0.049725015
0.049687568 0.049708791 0.049772579 0.049770672 0.049766146 0.049963016
0.050038755 0.049978334 0.049960278 0.049950127 0.050165586 0.050428141
0.050466012 0.050640214 0.050444774 0.050672855 0.05075179 0.05071418
0.05067547 0.050671395 0.050756525 0.050723743 0.050532099 0.050567247
0.050621636 0.050522923 0.05055185 0.050542615 0.050501268 0.050357305
0.050221469 0.050227858 0.050398216 0.050252132 0.049973674 0.049854685
0.050010975 0.049873896 0.04978288 0.049808726 0.049841929 0.049715254
0.049545493 0.049515888 0.049581818 0.04953441 0.049402975 0.049341537
0.049280897 0.049215529 0.049303953 0.049286045 0.049116656 0.049393114
0.049218155 0.049287584 0.049164664 0.04919821 0.049099237 0.049144112
0.049159776 0.049302883 0.049222138 0.049080014 0.049080014 0.04921649
0.049078442 0.049212538 0.04927709 0.049538802 0.049131863 0.049252931
0.049346901 0.049349964 0.049400143 0.049242087 0.049290515 0.049339499
0.049403291 0.049529992 0.049473073 0.049434733 0.049482819 0.049720652
0.049928237 0.049801294 0.049892519 0.049894784 0.049978446 0.050032843
0.050099421 0.050283555 0.050456073 0.050342526 0.050342165 0.050597627
0.050718196 0.05071383 0.050586298 0.050637074 0.050914332 0.050913714
0.050905943 0.051015824 0.050919116 0.051050514 0.051150341 0.051303945
0.051211227 0.051153775 0.051047768 0.051057577 0.051050019 0.050805181
0.05091621 0.05082744 0.050414864 0.050660752 0.050822943 0.05071611
0.050312769 0.050044127 0.049956106 0.049744502 0.049808938 0.049530499
0.049621101 0.049674846 0.049568441 0.049753197 0.049754016 0.049684681
0.049711261 0.049915161 0.050113421 0.050008588 0.050060723 0.05002521
0.050204929 0.050513308 0.050588328 0.050746985 0.050497212 0.050814919
0.050855555 0.050838489 0.050824907 0.05080333 0.05089359 0.0508013
0.050610375 0.050675996 0.050751455 0.050611198 0.050576448 0.050565928
0.050565384 0.050484613 0.050256278 0.050227609 0.050368235 0.050256301
0.050003994 0.049819119 0.049947906 0.049808662 0.049761634 0.049807567
0.04979058 0.049603119 0.049439732 0.049463686 0.04954455 0.049425174
0.049290825 0.04918522 0.049146857 0.04908045 0.049201757 0.049136631
0.048993044 0.049397744 0.049134195 0.049189802 0.049023304 0.049085092
0.049023714 0.049054768 0.049032152 0.049140602 0.049037002 0.049064003
0.049064003 0.049066566 0.048993863 0.049184561 0.04921725 0.049442321
0.049058452 0.049192503 0.049287859 0.049219906 0.049258988 0.049077626
0.049160562 0.049259864 0.049326506 0.049461588 0.049339235 0.049307223
0.049464636 0.049690701 0.049792238 0.049650453 0.04983408 0.049854256
0.049897958 0.050000135 0.05017551 0.050348427 0.050465938 0.050408807
0.050362971 0.050625306 0.050781101 0.050716497 0.050633017 0.050718151
0.051007193 0.050976817 0.050944436 0.051175844 0.05098702 0.051169947
0.051372342 0.051514331 0.051417619 0.051355444 0.051193003 0.051161081
0.051246524 0.050917204 0.051107284 0.050901402 0.050542016 0.050802775
0.050913516 0.050805073 0.050268531 0.050066441 0.049920406 0.049736686
0.049747434 0.04946306 0.049526785 0.049572453 0.049418509 0.049759608
0.049688768 0.049572028 0.049630269 0.049816135 0.050150093 0.050039083
0.050185021 0.05011721 0.050267223 0.050568901 0.050717562 0.050852109