# vtk DataFile Version 3.0
axinsert(project(permute(???,2,0,1),0,L2),2)
ASCII
DATASET STRUCTURED_POINTS
DIMENSIONS 128 256 1
ORIGIN 0 0 0
SPACING 1 1 1
POINT_DATA 32768
SCALARS nrrd82207 float
LOOKUP_TABLE default
0.050004136 0.04998602 0.049980104 0.050021999 0.050027017 0.049963061
0.050004013 0.050049003 0.049990185 0.05001704 0.050040405 0.049950033
0.049954027 0.05002819 0.050007232 0.050005011 0.049955048 0.049972203
0.050024085 0.050046057 0.050013188 0.050014064 0.049999196 0.049938999
0.050002046 0.049998052 0.049998086 0.05000601 0.050006002 0.050036017
0.0500312 0.049968075 0.04999201 0.050031155 0.049975455 0.049993008
0.049996138 0.049982008 0.050011076 0.049995005 0.050050139 0.050032292
0.050007217 0.04997538 0.049958043 0.049984057 0.050031122 0.050006162
0.050004225 0.05004324 0.049976978 0.049947005 0.050033625 0.04997512
0.049966361 0.050030008 0.050009251 0.050021015 0.049980454 0.049977198
0.050065875 0.050016016 0.049972679 0.049939029 0.050001029 0.050021023
0.050047126 0.050050713 0.050002687 0.049947422 0.049982414 0.050049275
0.049976375 0.049963236 0.050004005 0.049994227 0.049963072 0.049997017
0.050008081 0.050005998 0.049977023 0.049959 0.050021145 0.05000807
0.04998903 0.050049003 0.050020427 0.049980015 0.05005521 0.050006099
0.049953111 0.049994022 0.049989063 0.049964007 0.049978022 0.049999092
0.050055008 0.050053213 0.050004642 0.050003003 0.050028645 0.049946126
0.049951021 0.049990002 0.049975116 0.049997173 0.050012 0.049998038
0.050020009 0.050068017 0.050039027 0.04997848 0.049977027 0.050037082
0.050017979 0.049952008 0.049962111 0.04999502 0.050020006 0.049993176
0.050007042 0.050006133 0.050020009 0.050028104 0.0499571 0.049994007
0.0499852 0.0499852 0.049936235 0.050037004 0.049991067 0.050067011
0.050064001 0.049984001 0.050045162 0.050079089 0.049971018 0.050046153
0.050044056 0.049883019 0.049887028 0.050063003 0.050018121 0.049982041
0.04991008 0.049940009 0.05004213 0.050088026 0.050052103 0.049989
0.050004002 0.049938116 0.050062053 0.049981296 0.049980063 0.050009146
0.049953144 0.05013302 0.050090443 0.049897116 0.050062198 0.050107464
0.049938582 0.04995643 0.049949292 0.049955722 0.050035063 0.050050877
0.050091285 0.050052758 0.049973376 0.049956515 0.049917508 0.050030708
0.050086971 0.050001692 0.050047405 0.050052017 0.049887612 0.050005943
0.050065737 0.049995471 0.049965728 0.049929854 0.0499782 0.050087616
0.049978297 0.049969692 0.050066222 0.049990401 0.049957704 0.049947698
0.050030526 0.050015148 0.050131001 0.050023343 0.0499602 0.04997554
0.050005071 0.050028581 0.049950454 0.049899884 0.049971364 0.050011471
0.049948528 0.050006486 0.050009493 0.049959477 0.049939107 0.050024495
0.05001865 0.049960464 0.050037298 0.050138928 0.049996242 0.049924608
0.050053224 0.050048158 0.049929507 0.049968362 0.050009172 0.049963862
0.04998352 0.050028324 0.050125826 0.050100915 0.049923599 0.049991354
0.050018493 0.049891047 0.04995257 0.050032232 0.049921084 0.04990916
0.050001308 0.050000072 0.050060309 0.050040107 0.050073002 0.050032064
0.049963143 0.050136119 0.050010461 0.04987102 0.049958155 0.049921382
0.050062019 0.050000526 0.049951028 0.050032269 0.049992003 0.050008006
0.050010074 0.050006211 0.049916018 0.049916018 0.049934004 0.050052196
0.049990002 0.050094023 0.050034013 0.050053999 0.050053071 0.049982011
0.050018042 0.050038043 0.049953058 0.049949039 0.049956009 0.050072044
0.049995027 0.049965024 0.049979027 0.049975377 0.049982049 0.050040238
0.050061002 0.049969207 0.050062016 0.049985681 0.05006304 0.050001558
0.049948201 0.050037265 0.049948446 0.050139487 0.050071437 0.049926221
0.050122738 0.050121434 0.049952831 0.049923651 0.049995676 0.049935609
0.050046481 0.050094862 0.050040595 0.050040435 0.049950644 0.050009526
0.049999405 0.05004869 0.050050218 0.050028857 0.050072771 0.049989007
0.049932431 0.050089151 0.049960859 0.050036412 0.050008893 0.049872655
0.04997227 0.050084669 0.050001089 0.049985755 0.050016142 0.049950853
0.050004788 0.050034471 0.050027713 0.049999077 0.050102502 0.049912691
0.04992735 0.050094381 0.049989097 0.049914818 0.049992044 0.049938239
0.049961738 0.05003738 0.049976707 0.05000652 0.049984407 0.049885157
0.049969677 0.050093479 0.049997695 0.049962625 0.05005623 0.05005917
0.049964398 0.049959164 0.049970914 0.050052766 0.050009713 0.04992741
0.050048497 0.050053611 0.050032154 0.050032053 0.050069097 0.050029024
0.049885608 0.049974952 0.049926683 0.049959283 0.050034374 0.050057661
0.049916379 0.04986662 0.049961217 0.050024506 0.050054129 0.04991645
0.050052397 0.050071333 0.049970295 0.050124306 0.049973082 0.04987818
0.050060071 0.049898911 0.050008129 0.049990281 0.049906015 0.050035153
0.049936008 0.049948025 0.050115008 0.049991153 0.049878065 0.049878065
0.050025005 0.050038163 0.049905017 0.050101001 0.050023004 0.05004001
0.050020002 0.049929045 0.050082024 0.050023008 0.049916051 0.049991012
0.050019003 0.050074127 0.049975004 0.050003074 0.050061002 0.049984466
0.049978003 0.050036535 0.050038032 0.049999412 0.05010514 0.049995601
0.050041296 0.050048627 0.049921591 0.050054505 0.050011657 0.050124846
0.050014526 0.049966387 0.050127879 0.050119471 0.049993031 0.049949031
0.050089419 0.049922328 0.050049383 0.050075609 0.050028116 0.050064508
0.049990468 0.050088558 0.050049648 0.050012421 0.050009601 0.050068788
0.05007036 0.049977135 0.050016992 0.050073206 0.049882926 0.050023317
0.05000763 0.049965758 0.049972504 0.050054595 0.049983636 0.049984545
0.050054315 0.049952913 0.050028469 0.050082244 0.049993213 0.049992386
0.050074715 0.049876977 0.04992323 0.050076712 0.049930334 0.049901716
0.0500254 0.050005581 0.049987797 0.05000085 0.049965821 0.049969468
0.04995684 0.049852055 0.049977519 0.050064024 0.050028708 0.05003766
0.04999068 0.049971692 0.050002877 0.050028469 0.049971707 0.05003047
0.050018288 0.049931396 0.050051507 0.050087262 0.05005848 0.050005559
0.049982328 0.049976032 0.049927078 0.050002597 0.049867548 0.050005138
0.050047841 0.050032973 0.049930658 0.049899116 0.049952101 0.050004303
0.050026275 0.049896039 0.050029881 0.050017577 0.049968459 0.050056767
0.049957044 0.049891546 0.050111067 0.049963757 0.049917318 0.049937196
0.049907077 0.050024197 0.049911018 0.049930077 0.050104011 0.049948003
0.049882013 0.049882013 0.050076004 0.050061002 0.049859077 0.050053999
0.050019015 0.050033018 0.050014999 0.049934004 0.050118018 0.050012998
0.04996001 0.049998108 0.050035015 0.050067119 0.049969006 0.05002116
0.050096009 0.049976274 0.049995005 0.05008338 0.050031137 0.050032388
0.050104354 0.050031293 0.050074633 0.050067604 0.049931802 0.05003896
0.050026733 0.050113983 0.049976863 0.049993765 0.050142046 0.050145797
0.050052375 0.049991589 0.050145958 0.049935251 0.05007631 0.050055109
0.050042272 0.05009063 0.050052233 0.05014107 0.050065842 0.05003418
0.050015155 0.050091855 0.050035078 0.049951591 0.050043322 0.050064351
0.049899593 0.050004415 0.050047953 0.050043851 0.049956437 0.050024625
0.049991447 0.049973127 0.050053094 0.049970467 0.050026681 0.050098043
0.049954221 0.049971875 0.050064497 0.049879339 0.04990951 0.050010782
0.049883224 0.049930084 0.050078522 0.050073415 0.04998875 0.049953151
0.049933884 0.049913406 0.049936626 0.049849968 0.04996461 0.04997579
0.050062042 0.05010904 0.049951877 0.049946822 0.050057881 0.050074618
0.049976431 0.050010625 0.049994238 0.049961209 0.050038785 0.050041776
0.05007267 0.049999796 0.049900863 0.049978666 0.049979288 0.05003316
0.04986668 0.049995501 0.05000807 0.050029624 0.049936306 0.049925517
0.049974278 0.049943089 0.050000176 0.049877863 0.049961835 0.049986888
0.049994487 0.049986247 0.049929116 0.04990682 0.050086141 0.050008431
0.049867317 0.049905255 0.049902216 0.04998818 0.049890026 0.049935091
0.050053045 0.049908999 0.049901001 0.049901001 0.050065011 0.050100051
0.049890071 0.049968004 0.049993053 0.050070014 0.050045002 0.049971007
0.0500971 0.050006025 0.050035108 0.049994051 0.050032102 0.050056033
0.049996085 0.05000319 0.050096035 0.049981173 0.050008051 0.050129276
0.050040185 0.050068349 0.050081383 0.050056286 0.05012054 0.050074507
0.049989659 0.050036274 0.050021771 0.0501412 0.049978212 0.050001536
0.050136428 0.050173312 0.050103661 0.05003006 0.050157402 0.04996321
0.050134983 0.050068572 0.050078567 0.050149638 0.05010942 0.050137959
0.050064307 0.05010723 0.050066367 0.050126188 0.049992539 0.049921084
0.050016727 0.050078969 0.049975358 0.049980581 0.050105657 0.050072886
0.049955875 0.050006527 0.050011534 0.049972031 0.050015513 0.049996007
0.050006099 0.050055128 0.049909052 0.049950615 0.050032225 0.049883183
0.049885042 0.049977519 0.049874485 0.049932495 0.050130345 0.05010945
0.049963698 0.049942493 0.0499047 0.049864132 0.049915437 0.049854685
0.049964849 0.049877942 0.05005518 0.050144147 0.049973492 0.04997186
0.05008119 0.050081853 0.049974147 0.050010845 0.049985435 0.049986832
0.050018806 0.049963206 0.050071437 0.05001685 0.049872752 0.050011624
0.049994353 0.050034441 0.049906097 0.049944438 0.049951259 0.050058309
0.049916811 0.049901929 0.050007962 0.049883418 0.049987268 0.049854167
0.049886949 0.049960289 0.050015513 0.049946509 0.049886331 0.049912974
0.050027262 0.050029378 0.049863312 0.049910411 0.049880411 0.049927264
0.049874067 0.04994015 0.050004035 0.049881004 0.049891002 0.049891002
0.050038021 0.050113089 0.049951009 0.049892999 0.049966048 0.050117008
0.050083999 0.050016023 0.050041057 0.050013017 0.050088093 0.049991004
0.050027084 0.050053004 0.050048094 0.049987137 0.050089099 0.049990099
0.05003012 0.050148256 0.050049175 0.050095413 0.050081287 0.05007061
0.050129402 0.050088551 0.050067551 0.050055373 0.050022829 0.050181355
0.050021186 0.050027315 0.050109796 0.050182931 0.050138835 0.050081525
0.050157081 0.049994744 0.050203916 0.050104175 0.050128888 0.050227657
0.050149787 0.050130788 0.050088264 0.050167128 0.050133776 0.050162636
0.049971592 0.049911879 0.049981788 0.050103843 0.050059453 0.049971644
0.050122362 0.050061263 0.049985237 0.050016731 0.050017957 0.049978465
0.049959332 0.050003797 0.049986847 0.049979925 0.049863346 0.049924258
0.049970262 0.049870133 0.049865581 0.049975704 0.049884416 0.049922742
0.050147172 0.050100539 0.049917538 0.049956102 0.049903702 0.049819559
0.049899753 0.049888432 0.049987845 0.049823131 0.050007213 0.050134555
0.050017636 0.050006371 0.050068472 0.05006374 0.049982086 0.050032105
0.050000831 0.049990557 0.049992625 0.049912594 0.050052926 0.050017957
0.049886644 0.050026387 0.049966592 0.050005589 0.049961928 0.049912617
0.049904846 0.050085932 0.049891032 0.049843531 0.050019927 0.049859401
0.049970865 0.049834952 0.049852587 0.049911734 0.050020874 0.049941666
0.049851857 0.049891222 0.049965438 0.050032552 0.049869359 0.049935594
0.049862478 0.049868539 0.049848143 0.049911272 0.049949009 0.04987302
0.049861003 0.049861003 0.050023019 0.050079055 0.049997017 0.049863003
0.049959023 0.050124004 0.050118063 0.050060015 0.050007001 0.050032008
0.050090019 0.049989 0.05002901 0.050063003 0.050096031 0.050006077
0.050080139 0.049993053 0.050066154 0.0501532 0.050080188 0.050110575
0.050118282 0.050091043 0.050107483 0.050105806 0.050128601 0.050083406
0.050025981 0.050195392 0.050088979 0.050085567 0.050092932 0.050184492
0.050161991 0.050163057 0.050174866 0.050039753 0.050258245 0.050142873
0.050187379 0.050275527 0.050181132 0.050167717 0.050146092 0.050196044
0.050196081 0.050175525 0.04999708 0.049943928 0.04996711 0.050125677
0.050109562 0.04998181 0.050098203 0.050018158 0.050023042 0.050046239
0.050008319 0.049987238 0.049905885 0.049971152 0.049967971 0.049919982
0.049825288 0.049887568 0.049909934 0.049840558 0.049859844 0.049971279
0.049879208 0.049919654 0.050120976 0.050060369 0.049858611 0.049954858
0.049933285 0.049796849 0.04990413 0.04994522 0.050016388 0.049829904
0.049947359 0.050094441 0.050045006 0.050030731 0.050042666 0.050045952
0.050011385 0.050062798 0.050026208 0.04997145 0.049949493 0.049904063
0.05002759 0.04998339 0.049917564 0.050003983 0.0499238 0.049972102
0.050002091 0.049931638 0.049897026 0.050076742 0.049872246 0.049794495
0.049993493 0.049874548 0.049941845 0.04981897 0.049863517 0.049858186
0.050010741 0.049942825 0.049830653 0.049830396 0.049910679 0.050014708
0.049868427 0.049944676 0.049865354 0.049831845 0.049806189 0.049846385
0.049883999 0.049876053 0.049826 0.049826 0.050020002 0.050019011
0.050014086 0.049882006 0.049968004 0.050083999 0.050141141 0.050099008
0.050023023 0.050057083 0.050055001 0.049989004 0.050041001 0.050077032
0.050112005 0.050053049 0.050071113 0.049997039 0.05010017 0.050162151
0.050147243 0.050127711 0.050164413 0.050121125 0.050091747 0.050110053
0.050163724 0.050117441 0.050028227 0.0501775 0.050155926 0.050154403
0.050100923 0.050194796 0.050188247 0.050264556 0.050212391 0.05010375
0.050290313 0.050180502 0.050242689 0.050276 0.05021733 0.050242592
0.050215259 0.050221313 0.050251842 0.050164625 0.050071415 0.050016817
0.049977358 0.05013464 0.050110195 0.05000164 0.050066061 0.049959965
0.050040495 0.05007178 0.049987357 0.049996402 0.049877655 0.049914412
0.049937204 0.049892668 0.049801536 0.049849663 0.049869228 0.04980604
0.049856976 0.049938418 0.049850211 0.049910154 0.050068472 0.0500044
0.049803764 0.049934242 0.04997329 0.049811203 0.049926132 0.049984794
0.050032564 0.049886052 0.049913689 0.050045531 0.050045267 0.0500484
0.050016936 0.050040688 0.050052866 0.050084598 0.050050136 0.049944218
0.04989535 0.04991788 0.050005771 0.049940322 0.04994183 0.049962699
0.049896799 0.049943164 0.050013021 0.0499851 0.049921513 0.050021715
0.049866732 0.049778726 0.04993457 0.049894098 0.049910605 0.049803529
0.049878143 0.04982755 0.049985807 0.04992795 0.049802363 0.04974331
0.049860958 0.049980678 0.049863543 0.049918592 0.049890224 0.04981887
0.049754161 0.049768373 0.049821999 0.049876075 0.049794007 0.049794007
0.050017022 0.049975999 0.050014075 0.049931001 0.049977001 0.050025005
0.050149098 0.050131004 0.050070025 0.050085112 0.050014999 0.049991023
0.050060999 0.050088085 0.050103005 0.050097052 0.050071061 0.050020091
0.050123211 0.050177202 0.050224289 0.050155688 0.05019157 0.050153866
0.050101958 0.050096095 0.050188843 0.050158437 0.05003842 0.050146777
0.050196014 0.050217088 0.050131999 0.05022081 0.05022864 0.050357889
0.050262518 0.050178353 0.050308648 0.050227009 0.050284509 0.050256237
0.050269056 0.050326388 0.05028411 0.050273366 0.050304912 0.050152574
0.050170045 0.050114337 0.050010264 0.050124384 0.050079335 0.050015431
0.050043676 0.049910098 0.050029479 0.050076645 0.049961399 0.049994133
0.049868897 0.049864441 0.049896885 0.049885616 0.049787443 0.049821749
0.049838405 0.049773928 0.049838103 0.049870674 0.049812112 0.049875259
0.050012495 0.049945619 0.049771864 0.049924094 0.050002944 0.049858611
0.049947519 0.049976058 0.050031681 0.049960889 0.049916953 0.050012335
0.050038204 0.050072264 0.049997211 0.050042015 0.050080158 0.050079264
0.050066505 0.049923703 0.049860079 0.049933217 0.049989503 0.049922772
0.049950302 0.049929757 0.049890593 0.049911652 0.050002579 0.050036136
0.049949747 0.049946692 0.049872674 0.049784802 0.049863774 0.049881954
0.049883969 0.049784366 0.04986335 0.049828786 0.04995051 0.049895968
0.04975478 0.049652178 0.049813308 0.049936615 0.049855761 0.049858496
0.049918223 0.049806606 0.049707126 0.049704257 0.049779005 0.04986107
0.049766012 0.049766012 0.05000804 0.049975008 0.050010011 0.049980007
0.049982019 0.049975015 0.050139014 0.050149001 0.050112005 0.050104052
0.049996 0.04998903 0.050082002 0.050100092 0.050088003 0.050119065
0.050089028 0.050069176 0.050144233 0.050188337 0.050269265 0.050191496
0.050201554 0.05018555 0.050132848 0.050083943 0.050217927 0.050198294
0.050073434 0.050117038 0.050195083 0.050278746 0.05017719 0.050259691
0.050284073 0.050425999 0.050314464 0.050253496 0.050330631 0.050289493
0.050317969 0.05025265 0.050337367 0.050402481 0.050358146 0.050348878
0.050351691 0.050167028 0.050266519 0.050213397 0.050061777 0.050101582
0.050049711 0.0500152 0.050025165 0.049878731 0.049998801 0.050065611
0.049934044 0.049973965 0.049853396 0.049831308 0.049865842 0.049872961
0.049768616 0.049802821 0.049789444 0.049743094 0.049800951 0.049781483
0.049775299 0.049816169 0.049967311 0.049896833 0.049766067 0.049943998
0.050009839 0.049914815 0.049960434 0.049931031 0.050023019 0.050023835
0.049941562 0.050005607 0.050043806 0.050108042 0.050001118 0.050042879
0.050070032 0.050048966 0.050075751 0.049919184 0.049865924 0.049948111
0.049976379 0.049931582 0.049944621 0.049919203 0.04989554 0.049877279
0.049984418 0.05006057 0.049961593 0.049883757 0.049876004 0.049787492
0.049802829 0.049837958 0.04985733 0.049759053 0.049822602 0.049844068
0.049902804 0.049861979 0.049704034 0.049576331 0.049769782 0.049891762
0.049842082 0.049787544 0.049920406 0.049775369 0.049674153 0.049667172
0.049752053 0.049826045 0.049741004 0.049741004 0.049998019 0.050007004
0.050011009 0.050006006 0.049991034 0.049945027 0.050112005 0.050153002
0.050134003 0.050102003 0.049997002 0.049982004 0.050105009 0.050116036
0.050084002 0.050126046 0.050121006 0.050126173 0.050171155 0.05018935
0.050265145 0.050224222 0.050207369 0.050206274 0.050176479 0.050102662
0.050246894 0.050226968 0.050133262 0.050094958 0.050166082 0.050351463
0.050236322 0.050304566 0.050344385 0.05047287 0.050368417 0.050327398
0.050369643 0.05036509 0.050351307 0.050279509 0.050421812 0.050467186
0.050436296 0.050428718 0.050393771 0.050222985 0.050344829 0.050295692
0.050126098 0.050088625 0.050042298 0.050001636 0.049998187 0.049864449
0.049967397 0.050051767 0.049906455 0.049934801 0.049807649 0.049802557
0.049848825 0.049836505 0.04973821 0.049774777 0.049711302 0.049706079
0.04975725 0.049688481 0.049739856 0.049760208 0.049930427 0.049861975
0.049782608 0.049980644 0.049993467 0.049955875 0.049964454 0.049888957
0.050020639 0.050056063 0.049965333 0.050028685 0.050066397 0.050146669
0.050042499 0.050045852 0.050024617 0.050012011 0.050079472 0.049933076
0.049914289 0.049966414 0.04995897 0.049940638 0.049930796 0.049926925
0.049899179 0.04984992 0.04996632 0.050050166 0.049960379 0.049850073
0.049859468 0.049773023 0.04976384 0.049781051 0.049815129 0.049730483
0.049780402 0.049847551 0.049840081 0.049831167 0.049673326 0.049525868
0.04972849 0.049843244 0.04981545 0.049727805 0.049883801 0.049721323
0.049651291 0.049648184 0.049721185 0.049769018 0.049718 0.049718
0.049989998 0.050044999 0.050013021 0.050011002 0.050009023 0.049933013
0.050074019 0.050150026 0.050143003 0.050071012 0.049996041 0.049976017
0.050126065 0.050138 0.050097007 0.050134003 0.050152998 0.050164044
0.050200023 0.05018213 0.050232019 0.050258022 0.050219137 0.050211057
0.050228138 0.050158311 0.050275665 0.050248545 0.050206959 0.050085403
0.050139036 0.050430302 0.050303206 0.050358403 0.050401486 0.050508589
0.050425317 0.05040624 0.050434649 0.050445694 0.050393395 0.050332773
0.050520997 0.050524183 0.050506212 0.050498359 0.050435383 0.05031807
0.050406165 0.050353251 0.05019125 0.050107505 0.050058044 0.049984816
0.049962219 0.049855068 0.049955487 0.050038651 0.049872287 0.049880013
0.049737293 0.049767781 0.049829785 0.049771953 0.049695697 0.049725555
0.049616776 0.049655642 0.049714077 0.049608927 0.049703527 0.049733538
0.049895056 0.049841166 0.049811587 0.050002009 0.049961664 0.049975008
0.049963031 0.049883097 0.050033495 0.050065666 0.049979821 0.050068047
0.05010435 0.050169472 0.050114762 0.050055396 0.049969349 0.049992546
0.050081044 0.049962573 0.049991388 0.049988862 0.049939316 0.04992792
0.049909342 0.049940851 0.04989773 0.049835667 0.049950268 0.050013982
0.049955554 0.049834698 0.049817909 0.049748838 0.049745105 0.049730316
0.049751531 0.049706057 0.049752928 0.049822308 0.0497717 0.049801767
0.049666796 0.04950273 0.04969148 0.049776983 0.049773835 0.049688227
0.049821299 0.049658474 0.049633555 0.049629312 0.049663339 0.049698006
0.049689017 0.049689017 0.049986001 0.050066009 0.050007004 0.050006017
0.050028998 0.049938999 0.050027009 0.050138101 0.050150003 0.050017077
0.049983151 0.049967129 0.05013622 0.050162118 0.050121125 0.050156035
0.050168041 0.050167032 0.050221067 0.050181009 0.050200045 0.050297055
0.050234001 0.050207019 0.050278001 0.050238021 0.050309274 0.050273173
0.050278541 0.050100628 0.050154954 0.050499167 0.050365817 0.05042506
0.050455254 0.050539192 0.050490994 0.050487936 0.050520353 0.050524909
0.050457001 0.050413042 0.050623748 0.050571576 0.050560698 0.05056027
0.050488129 0.050432898 0.050455369 0.05039468 0.050256964 0.050172389
0.05008864 0.049978461 0.049924966 0.049845204 0.049968109 0.050020717
0.049827974 0.049811121 0.049664728 0.049724031 0.049784619 0.04968321
0.049643349 0.049656112 0.049532712 0.049587004 0.049664456 0.049554612
0.049664866 0.049733996 0.049853928 0.049829409 0.049840771 0.049987141
0.049930669 0.049981419 0.049966943 0.049918801 0.050058458 0.050075714
0.049990106 0.050113067 0.050150849 0.050170768 0.050188567 0.050077327
0.04993568 0.050002664 0.050084524 0.049999733 0.050077118 0.0500113
0.049921155 0.049900454 0.049883865 0.049948193 0.049893863 0.049831927
0.049937524 0.049969286 0.049946547 0.049818601 0.049762558 0.049730383
0.049737871 0.049692005 0.049675576 0.049691346 0.049731072 0.049766399
0.049708746 0.049765863 0.049667507 0.049502712 0.04965356 0.049684763
0.04972025 0.049661644 0.049754731 0.049594745 0.049613841 0.049595516
0.049575418 0.049625017 0.049648035 0.049648035 0.049986999 0.050058007
0.04999401 0.049996041 0.050041031 0.049957041 0.049978003 0.050110236
0.05015308 0.049962267 0.049969353 0.049952302 0.050129492 0.050174441
0.050146509 0.050182302 0.050160345 0.050141413 0.050229598 0.050193403
0.050187454 0.050336421 0.050247207 0.050208341 0.050320137 0.050319131
0.050356008 0.050313 0.050330132 0.050154071 0.050233703 0.050547861
0.050414216 0.050502446 0.050512597 0.050569583 0.050561305 0.050572269
0.050617557 0.050600309 0.050549101 0.050520502 0.050718971 0.050610587
0.050609827 0.050633378 0.05056233 0.050538287 0.05049691 0.050436024
0.050330948 0.050273485 0.050122421 0.049993981 0.049906526 0.04983772
0.049984004 0.049982585 0.049769107 0.049726862 0.049607784 0.04967558
0.049698189 0.049581263 0.049579281 0.049574487 0.049480181 0.049508639
0.049596682 0.049525179 0.049621865 0.049736287 0.049806442 0.049829632
0.049861636 0.049937066 0.049917735 0.049996123 0.049984556 0.049975086
0.050089512 0.050103277 0.050002817 0.050159927 0.05019974 0.050159756
0.050239444 0.050106291 0.049942989 0.050037634 0.050090749 0.050036825
0.050152272 0.050031867 0.049911369 0.049878415 0.049862687 0.049945507
0.049890067 0.049827211 0.04992846 0.049931549 0.049927689 0.049790125
0.049712028 0.049720105 0.049729347 0.049665336 0.049605306 0.049681742
0.049697552 0.049686033 0.04965819 0.049720492 0.049652483 0.049510673
0.049610432 0.049578488 0.049654752 0.049630996 0.049690999 0.049531996
0.049589001 0.049543679 0.049475398 0.049555052 0.049590036 0.049590036
0.049991 0.050024003 0.049972076 0.049984057 0.05003012 0.049976163
0.049936071 0.050064396 0.050139345 0.049919672 0.049972683 0.049933549
0.050100856 0.050158937 0.050157301 0.050196022 0.050140299 0.050108306
0.050226722 0.050212432 0.050197467 0.05036423 0.050257169 0.050232168
0.050349705 0.050384868 0.05041923 0.050366271 0.050359022 0.050252128
0.050365265 0.050582327 0.050450526 0.05058568 0.050581541 0.050603703
0.050633296 0.050659139 0.050719306 0.050678879 0.050669882 0.050655618
0.050801434 0.050647192 0.050670713 0.050731808 0.050660525 0.050623104
0.050539397 0.050490458 0.050417621 0.050384831 0.050156035 0.050034966
0.049920969 0.049844623 0.049976569 0.049920209 0.049695611 0.049632501
0.049565818 0.049619451 0.049575392 0.04947624 0.049503412 0.049487587
0.049457818 0.049428545 0.049509406 0.049511265 0.049573846 0.049711272
0.049759265 0.049839746 0.049870711 0.049877923 0.049934015 0.050032988
0.050022721 0.050030716 0.050124705 0.050146289 0.050025605 0.050210673
0.050242789 0.050161477 0.050263423 0.050142188 0.049998455 0.050084934
0.050098762 0.050067298 0.050203942 0.050053239 0.049911272 0.049878139
0.049860839 0.049933434 0.049887691 0.049817078 0.049918659 0.04990612
0.049895201 0.049750783 0.049680039 0.049707301 0.049706742 0.049648624
0.049551822 0.049664427 0.049639206 0.04959349 0.049612019 0.049664583
0.049608774 0.049502727 0.049561918 0.049476322 0.049578335 0.049585372
0.049624149 0.049464136 0.049558032 0.049480706 0.049386363 0.049488112
0.049515031 0.049515031 0.049987003 0.049976002 0.049940147 0.049969096
0.049988244 0.0499814 0.049908295 0.050005589 0.050095845 0.049887322
0.049994275 0.049921039 0.050057389 0.050108675 0.050134514 0.050183423
0.050122086 0.050086752 0.05021536 0.050228111 0.050218165 0.050375693
0.050264161 0.050283648 0.050369974 0.0504333 0.050488297 0.050420314
0.050378639 0.050373018 0.050520003 0.050616998 0.050491039 0.050667085
0.050662465 0.050654717 0.050707188 0.05074878 0.050821804 0.050771009
0.05081246 0.050806548 0.050880898 0.050700087 0.050756283 0.050851721
0.050782908 0.05069913 0.050599068 0.050566126 0.050513797 0.050479073
0.050197847 0.050098579 0.049970224 0.049869765 0.0499302 0.049833715
0.049612634 0.049541291 0.049524356 0.049545389 0.049435351 0.049376383
0.049411554 0.049390569 0.049441203 0.049352136 0.049410008 0.049494766
0.049525037 0.049655031 0.049717598 0.049855761 0.049872015 0.049841862
0.049981449 0.050094802 0.050078906 0.050081283 0.050168063 0.050197568
0.050067432 0.050266173 0.050278965 0.050193995 0.050276246 0.050186701
0.050094046 0.05013587 0.05011085 0.050091658 0.050227843 0.050080143
0.04991651 0.049903367 0.049885385 0.049919277 0.04988483 0.049804639
0.049905624 0.04988905 0.049852107 0.049714938 0.049665928 0.049679931
0.049668506 0.049635191 0.049517233 0.049626268 0.049558122 0.049496856
0.049558405 0.049601164 0.04953856 0.049461201 0.049509384 0.049390409
0.049487036 0.04951888 0.049541295 0.049390264 0.049519055 0.049413662
0.04931638 0.049419165 0.049431026 0.049431026 0.049968004 0.04991902
0.049894203 0.049948234 0.049927384 0.049959764 0.049895752 0.049940914
0.050022632 0.049854215 0.050014276 0.049920101 0.050013267 0.050031912
0.050075091 0.050146598 0.050111435 0.050085891 0.050196499 0.050233524
0.050238479 0.050366089 0.050270069 0.050350033 0.050389308 0.050469514
0.050543562 0.050474532 0.050406404 0.050492793 0.050667718 0.050663754
0.050553262 0.050744135 0.050754 0.050732058 0.050787307 0.050843626
0.050930388 0.050884254 0.050961919 0.050956987 0.050973468 0.050790865
0.050868481 0.0509804 0.050920028 0.050790232 0.050693665 0.050662752
0.050612967 0.050546896 0.050260581 0.050177425 0.050040226 0.049905792
0.049857989 0.04973644 0.049527835 0.049468741 0.049465794 0.049442835
0.049295396 0.049284831 0.049295656 0.0492795 0.049404308 0.049279708
0.049316179 0.049460988 0.049483255 0.049583666 0.049684834 0.049867626
0.04987302 0.04984796 0.050047949 0.050168455 0.050147638 0.050138533
0.050230559 0.050255973 0.050134651 0.050325237 0.050313648 0.050257478
0.050297581 0.050246127 0.05021558 0.050193213 0.050131362 0.050116971
0.050229769 0.050111245 0.049927656 0.049945902 0.049932506 0.049903989
0.04987948 0.049796842 0.049886685 0.049869403 0.04980639 0.049688708
0.049660563 0.049636744 0.049621943 0.049613036 0.049489532 0.049562912
0.049460676 0.049402159 0.049491599 0.049530305 0.049451023 0.049382374
0.049448356 0.049317852 0.049382005 0.049431644 0.049442612 0.049311519
0.04946319 0.049349643 0.049258474 0.049344186 0.049338039 0.049338039
0.049932003 0.049852069 0.049828295 0.049916558 0.04986465 0.049903225
0.049885564 0.049873531 0.0499328 0.049814329 0.050008707 0.049924999
0.049974795 0.049951002 0.049995989 0.050091468 0.050104015 0.050088923
0.050173327 0.050235871 0.050251331 0.050340589 0.050274611 0.050409596
0.050414946 0.050493754 0.050575364 0.050531283 0.050452601 0.050596587
0.050780166 0.050727271 0.050649807 0.050819259 0.050853733 0.050842229
0.050882008 0.050946038 0.051046364 0.051021911 0.051112339 0.051097605
0.051095724 0.050936792 0.051006213 0.051104996 0.051063303 0.050913747
0.050828822 0.050778806 0.050708607 0.050599266 0.050352015 0.05026608
0.050111964 0.049940288 0.04978478 0.049642906 0.04944618 0.049417168
0.049376156 0.049305528 0.049163934 0.049192555 0.04915151 0.049149569
0.049328234 0.049205035 0.049236838 0.049400236 0.049451027 0.049521208
0.04965622 0.04987029 0.049888238 0.049897172 0.050123446 0.050237995
0.05022702 0.050217725 0.05031633 0.050327487 0.0502306 0.050391715
0.050358523 0.050340209 0.050337546 0.050326418 0.050344039 0.050262325
0.050170522 0.050151985 0.050224181 0.050142661 0.049947955 0.04999733
0.049983431 0.049885307 0.049868699 0.049801487 0.04986088 0.049839217
0.049762055 0.049674053 0.04965445 0.049585491 0.049572021 0.049571004
0.049457688 0.049478009 0.049358249 0.049314272 0.049410887 0.04945109
0.049358323 0.049277414 0.049371336 0.049244668 0.04926648 0.049325798
0.049330294 0.049226075 0.049385495 0.049285721 0.049201615 0.049264222
0.049233068 0.049233068 0.049880009 0.04976818 0.04973948 0.049868092
0.049813174 0.049817782 0.049859818 0.049805623 0.049842462 0.049773712
0.049962495 0.04991962 0.049938202 0.049881119 0.049918443 0.050032828
0.050087798 0.050075952 0.050148241 0.050242279 0.050255995 0.050307285
0.05027578 0.050445478 0.050445974 0.050504442 0.050583959 0.050592754
0.050522462 0.05068073 0.050853647 0.050807726 0.050777078 0.050900809
0.050962992 0.050981626 0.051000636 0.051061209 0.051171999 0.051177133
0.05126195 0.051228754 0.051251326 0.051138796 0.051170427 0.05122951
0.051208429 0.051070191 0.05100131 0.050912935 0.050810594 0.05065665
0.05046818 0.050369401 0.050177008 0.049969569 0.049737792 0.049566559
0.049373504 0.049376663 0.049253982 0.049136825 0.049036071 0.049085248
0.04898097 0.049008738 0.049212031 0.049121656 0.049176048 0.049318571