# vtk DataFile Version 3.0
axinsert(project(???,0,L2),2)
ASCII
DATASET STRUCTURED_POINTS
DIMENSIONS 256 1 1
ORIGIN 0 0 0
SPACING 1 1 1
POINT_DATA 256
SCALARS nrrd65536 float
LOOKUP_TABLE default
0 0 0 0 0 0 0 0 0 0 0 0 0 0 0 0 0 0 0 0 0 0 0 0 0 0 0 0 0 2.4494898e-06
1.9261361e-05 0.00013548801 0.00095117034 0.0063291676 0.039053619
0.21560638 0.97697991 2.2964332 1.4337262 1.5350095 1.352177 0.94104356
1.1566757 1.5627394 1.8225158 1.7564708 1.5233124 1.8021045 1.7553866
1.6469527 2.0407839 2.4763479 2.0952749 1.6254086 1.2957979 1.1047642
0.99997336 0.93794602 0.89670897 0.86676311 0.84334528 0.82410562
0.80745333 0.79246861 0.77843237 0.76526099 0.75278509 0.74101174
0.72990161 0.71938962 0.70942914 0.69998914 0.69103718 0.68252373
0.67440873 0.66668838 0.65937293 0.6524803 0.64610392 0.63987172 0.63402385
0.62848526 0.62315929 0.61793011 0.61272478 0.60742033 0.60149968
0.59472704 0.58842361 0.58333623 0.58038777 0.57862306 0.57728702
0.57601696 0.57375103 0.56917322 0.56386399 0.55778044 0.55067986
0.54318899 0.53591716 0.53098428 0.52859157 0.52765667 0.52845216
0.52967072 0.53041661 0.52703166 0.52125937 0.51516002 0.50798988
0.50196201 0.49745542 0.49189124 0.48128983 0.46661648 0.48132038
0.55085814 0.60750568 0.62302506 0.64672911 0.71221125 0.76128244
0.79531187 0.79062718 0.72776467 0.65070415 0.51107216 0.51107216
0.47036085 0.44704589 0.44469789 0.46100047 0.46417135 0.46726319
0.45666793 0.43516883 0.40561035 0.37483469 0.33729285 0.2924678 0.26154622
0.24787113 0.24242413 0.2558192 0.29504761 0.35477063 0.39979845 0.40567499
0.39044589 0.34802517 0.2857039 0.2279049 0.19379975 0.18102902 0.17247865
0.17299078 0.18554547 0.21896562 0.27334711 0.33347026 0.36799949
0.38112888 0.38082713 0.37500617 0.38208142 0.4101845 0.45334443 0.50216347
0.55178553 0.6022296 0.65290129 0.70268953 0.75005364 0.7944718 0.83341986
0.86545843 0.89058787 0.90596688 0.90905964 0.90014911 0.88040608
0.85350305 0.82376671 0.79302514 0.76318246 0.7347365 0.70570308 0.67273009
0.6307469 0.57034475 0.50445324 0.44632483 0.39544857 0.34611079 0.29648724
0.244932 0.18255347 0.1039298 0.035377715 0.0044736639 0.00039680349
3.1176914e-05 2.6457512e-06 0 0 0 0 0 0 0 0 0 0 0 0 0 0 0 0 0 0 0 0 0 0 0 0
0 0 0 0 0 0 0 0 0 0 0 0 0 0 0 0 0 0 0 0 0 0 0 0 0 0 0 0
