# vtk DataFile Version 3.0
axinsert(project(permute(???,2,0,1),0,L2),2)
ASCII
DATASET STRUCTURED_POINTS
DIMENSIONS 128 256 1
ORIGIN 0 0 0
SPACING 1 1 1
POINT_DATA 32768
SCALARS nrrd97825 float
LOOKUP_TABLE default
0.049992029 0.049954068 0.050012097 0.050061006 0.050030038 0.050007004
0.050002102 0.049968023 0.049991041 0.050010089 0.050009262 0.049979106
0.049972098 0.049969118 0.050045107 0.050046027 0.04997604 0.049986005
0.049998004 0.050021004 0.050051004 0.049976464 0.049944133 0.04995802
0.050005209 0.050030999 0.050020132 0.049987122 0.050015066 0.050014012
0.049980011 0.049986035 0.049994044 0.050039094 0.050031278 0.049975999
0.050028998 0.049953297 0.0499481 0.050024088 0.049986001 0.049972061
0.050015405 0.050001021 0.050052788 0.050063144 0.049934004 0.049966112
0.05000801 0.050012089 0.050012004 0.049980063 0.049990024 0.050002031
0.050055396 0.04996663 0.04997313 0.049982287 0.050018668 0.050010424
0.049956262 0.050036184 0.04995811 0.050027188 0.050061207 0.049987003
0.049989011 0.049983121 0.050020184 0.050042097 0.050023999 0.049989019
0.049978007 0.049975999 0.049999341 0.050015491 0.049964491 0.050039008
0.049989998 0.049980059 0.050055008 0.049998455 0.050027139 0.050054982
0.049984027 0.04995767 0.049974184 0.050008286 0.049964007 0.049975067
0.049972046 0.050033152 0.050001055 0.049996011 0.050051998 0.049973045
0.049979005 0.050036039 0.05000801 0.049980018 0.04997405 0.049968064
0.050005104 0.050006069 0.050005104 0.049964007 0.049969569 0.050074134
0.050057009 0.049989078 0.049975 0.049973011 0.050008006 0.049977038
0.050048057 0.050057374 0.049970016 0.050021075 0.04998035 0.049924999
0.049962025 0.049982026 0.05000313 0.050049216 0.050037008 0.050011039
0.050001044 0.050001044 0.049946196 0.049899999 0.050074149 0.050043005
0.049990103 0.05006507 0.049973 0.049954154 0.049974058 0.050064147
0.050005019 0.04995713 0.049982015 0.049924012 0.050071999 0.050053045
0.049993075 0.049974017 0.050002042 0.049969006 0.050100435 0.049922023
0.049883321 0.050005022 0.049981013 0.050036073 0.049947057 0.049967621
0.050103031 0.050083112 0.049982011 0.050082069 0.050019167 0.049970001
0.049986139 0.049985033 0.050079025 0.049943015 0.049878117 0.050017014
0.050004017 0.049929999 0.050027009 0.049955018 0.050079159 0.050128017
0.049920287 0.049998138 0.049984064 0.049963001 0.050010085 0.049990021
0.049947113 0.050009031 0.050119076 0.049901053 0.050007142 0.050061129
0.050008006 0.05003402 0.049872 0.050056044 0.049894001 0.050084088
0.050179131 0.049940061 0.049922001 0.049862109 0.050004262 0.05012038
0.050109126 0.049930036 0.049989454 0.050002001 0.050068215 0.049949177
0.049921349 0.050100017 0.050026163 0.049992125 0.050065085 0.050025053
0.050066009 0.050030012 0.049967039 0.049890019 0.049995054 0.049968004
0.049894124 0.050043009 0.049958061 0.050069004 0.050028022 0.049931023
0.050057035 0.050005 0.050005008 0.050035026 0.04999201 0.05001102
0.049917016 0.049949002 0.050074037 0.05001137 0.049975999 0.04990207
0.049929004 0.050196137 0.050141018 0.049963385 0.049939003 0.050001152
0.050028056 0.050015192 0.050054308 0.050014015 0.049975011 0.050052062
0.049912032 0.049897004 0.049990408 0.049923051 0.049967062 0.050058018
0.050066005 0.050011002 0.049991019 0.049991019 0.050007034 0.049951144
0.050042097 0.049890004 0.049894076 0.050070055 0.04997411 0.050038055
0.050001021 0.049996015 0.05000012 0.049967065 0.050015163 0.049948096
0.050034098 0.049967244 0.050023403 0.049988251 0.050014425 0.049967133
0.050028168 0.049957264 0.049924027 0.050043188 0.049996074 0.050021064
0.049848016 0.049980301 0.050111003 0.050064713 0.050009187 0.050131705
0.050072197 0.049879391 0.049960323 0.050068103 0.050047051 0.050045207
0.049941029 0.049917001 0.0499851 0.049994044 0.050051004 0.049913
0.050005004 0.050057106 0.050034203 0.050051007 0.04993904 0.049956016
0.049979005 0.050007038 0.049946003 0.049979001 0.050067101 0.049963035
0.050085001 0.050117012 0.049973998 0.049985111 0.049855094 0.050002296
0.049978193 0.050081003 0.050116252 0.049916133 0.049880382 0.0498452
0.049952261 0.050083365 0.050115686 0.049947381 0.050016321 0.050041258
0.050150324 0.04993701 0.049930193 0.050071012 0.050083328 0.050038002
0.049984206 0.050060015 0.050024092 0.04999407 0.050008018 0.049908999
0.049947008 0.049982224 0.04991902 0.050088167 0.050042044 0.050048999
0.050068028 0.049914118 0.049984075 0.050068066 0.050018132 0.049962051
0.050014012 0.050074205 0.049887102 0.05000513 0.050133146 0.04998133
0.04992608 0.049902115 0.049980182 0.050110195 0.050123002 0.049962111
0.049936999 0.050056137 0.050017022 0.050055053 0.049969003 0.049945001
0.050023004 0.050050002 0.049940005 0.049976051 0.050019111 0.04992703
0.049936187 0.049973998 0.050011013 0.04999109 0.050025001 0.050025001
0.050105013 0.049944032 0.049950998 0.049838077 0.049900018 0.050058
0.049989052 0.050090007 0.050015021 0.049892031 0.049971286 0.049942058
0.049966615 0.049969267 0.049998488 0.049947765 0.050000403 0.049984962
0.050025426 0.050029915 0.050014257 0.050023802 0.049933039 0.049978677
0.050032329 0.050052777 0.049867269 0.050002515 0.050029084 0.049983144
0.049978446 0.050091702 0.050083924 0.049921628 0.050045442 0.050114442
0.0500204 0.050098456 0.050038151 0.049858034 0.049932264 0.050069116
0.050056063 0.049938161 0.049980003 0.049993146 0.050057173 0.050063223
0.049917057 0.050013289 0.049977008 0.049990326 0.04998 0.049957089
0.050038014 0.05002318 0.050035 0.050069544 0.049938168 0.04992472
0.049847256 0.049972657 0.050116409 0.050063044 0.050017454 0.049907416
0.04989168 0.049900174 0.049940329 0.050021224 0.050100934 0.05001732
0.05001029 0.050030302 0.050180357 0.049993385 0.04992906 0.050044309
0.050087098 0.050023384 0.050002247 0.050091166 0.050013062 0.050060101
0.050039005 0.04991205 0.049875036 0.050023198 0.049960114 0.050075036
0.050100267 0.050019022 0.050110079 0.049971014 0.050009321 0.050054137
0.049997173 0.049945138 0.05005515 0.050082248 0.049880162 0.05000237
0.050125018 0.049982272 0.049900059 0.049957186 0.04999752 0.050027184
0.050107088 0.049955122 0.049937088 0.050066192 0.049980044 0.050004058
0.049970008 0.04999005 0.049995031 0.050032001 0.050005998 0.050010059
0.049969092 0.049938019 0.049910087 0.049950998 0.049971029 0.049976051
0.050086003 0.050086003 0.050121006 0.049905062 0.049894106 0.049869165
0.049970005 0.050032001 0.049961127 0.050051074 0.04998149 0.04986842
0.049980417 0.049885198 0.049919091 0.049980476 0.04992193 0.049988355
0.04998862 0.04998957 0.050014615 0.050029829 0.050035708 0.050055519
0.049952593 0.049909227 0.049997192 0.050037958 0.049916539 0.050041582
0.049996953 0.049947832 0.049931951 0.050046682 0.050080653 0.049988758
0.050139021 0.050097413 0.05003633 0.050118897 0.050099306 0.049884561
0.049926694 0.050089423 0.050021693 0.049980652 0.0500094 0.049951464
0.050012488 0.05010476 0.049916204 0.050059594 0.049968034 0.049980797
0.05002002 0.049958419 0.050014008 0.050018493 0.049973089 0.049982194
0.049942646 0.049938958 0.049885266 0.049944542 0.0501795 0.05007048
0.049973454 0.049878579 0.04994173 0.049931187 0.04994246 0.049959127
0.050080992 0.050088305 0.050016355 0.05003522 0.050117284 0.050051823
0.049950045 0.050044507 0.05005404 0.049982876 0.050049148 0.050141573
0.050053004 0.050103143 0.050037052 0.049944222 0.049897339 0.050004039
0.050017189 0.050127026 0.05007169 0.049969018 0.050141193 0.050016005
0.050055444 0.050030161 0.050010238 0.049954265 0.050053302 0.0500792
0.049917396 0.049932532 0.05009003 0.050022174 0.049906213 0.050046422
0.049987901 0.049970422 0.050104458 0.049959451 0.049963642 0.050030589
0.049945109 0.049963377 0.049970053 0.05003329 0.049955212 0.04997512
0.050023999 0.050071057 0.049975097 0.049932167 0.049884066 0.049945123
0.049948025 0.049950145 0.050082002 0.050082002 0.050052069 0.049874302
0.049898203 0.049921218 0.050012048 0.049962156 0.049914543 0.049976382
0.049901176 0.049909286 0.050031777 0.049823858 0.049884409 0.050001193
0.049845207 0.050005089 0.049977422 0.049986463 0.049995679 0.050013937
0.050051816 0.050040871 0.049986288 0.049863271 0.049957812 0.04999081
0.049927812 0.050079077 0.050008956 0.049985819 0.049892843 0.050000492
0.05007866 0.050016575 0.050190594 0.050078966 0.050091628 0.050103843
0.050101183 0.049968902 0.049956691 0.050081182 0.049999919 0.050004296
0.050018553 0.049971327 0.050002906 0.050141152 0.049954686 0.050089657
0.049949385 0.049995709 0.050060183 0.049974497 0.050017074 0.049954426
0.049917407 0.049905978 0.049984969 0.050003633 0.04993736 0.049898364
0.050139688 0.050074019 0.049993731 0.049852703 0.049989779 0.049958363
0.049961522 0.049921215 0.050033756 0.050151575 0.050032366 0.05005642
0.050035272 0.050092906 0.049996059 0.050039429 0.050023071 0.049959566
0.050061062 0.050193623 0.050136004 0.050138135 0.05002312 0.050015222
0.049983796 0.049960021 0.050080575 0.050199218 0.050009094 0.049903046
0.050162457 0.050052155 0.050099768 0.050009478 0.050024565 0.049967539
0.050031543 0.050108399 0.049970914 0.0498579 0.050027482 0.050074283
0.049976911 0.050114214 0.049995575 0.04994138 0.050111253 0.049998458
0.049969893 0.049923286 0.049926385 0.049976051 0.049948476 0.050059717
0.049939729 0.049892601 0.049977154 0.050097179 0.050022114 0.049930394
0.049878053 0.049930394 0.049975015 0.049912766 0.049978025 0.049978025
0.049947117 0.049848434 0.049915306 0.049943414 0.049989264 0.049869873
0.049889185 0.049939986 0.049820486 0.049932886 0.050045498 0.049798541
0.049857687 0.050020885 0.049803689 0.049961381 0.049953971 0.049953125
0.049977086 0.05001197 0.050047211 0.050001357 0.050025098 0.049850505
0.049959004 0.049942255 0.049906235 0.050111987 0.050031487 0.050064456
0.049877584 0.0499616 0.050077297 0.049996652 0.050193992 0.050103988
0.050145123 0.050077826 0.050086524 0.050053634 0.05001206 0.050074093
0.05000433 0.050027829 0.050006736 0.050043978 0.050040308 0.050139364
0.050010376 0.050114743 0.049973063 0.050025284 0.050077565 0.049993347
0.050040398 0.049893271 0.049877681 0.0498605 0.050017036 0.050045401
0.049960818 0.049858417 0.05006101 0.050059307 0.050030272 0.049867842
0.050013766 0.049987752 0.049979553 0.049919564 0.049977448 0.050184071
0.05004143 0.05006896 0.050017338 0.050136752 0.050050065 0.05002426
0.050036073 0.049972106 0.050051 0.050229166 0.050205059 0.050171036
0.050023224 0.05010502 0.050100099 0.049962424 0.050122619 0.050222594
0.04998254 0.049864702 0.050184276 0.05009402 0.050134744 0.050001383
0.050016679 0.049954224 0.050017327 0.050153241 0.050017823 0.049848914
0.049968421 0.050104238 0.05008968 0.05014817 0.050005894 0.049934313
0.050112762 0.050046023 0.049941402 0.049794439 0.049914479 0.049986944
0.049918272 0.050080277 0.049939439 0.049824223 0.049917798 0.05005458
0.050038211 0.049903512 0.049878031 0.049916465 0.050022002 0.049861651
0.04985705 0.04985705 0.049840171 0.049808465 0.049902558 0.049934778
0.049916703 0.049784008 0.049890757 0.049937911 0.049779937 0.049904328
0.049964622 0.049809072 0.04984241 0.050014462 0.049797975 0.049873386
0.049923234 0.049891643 0.049942318 0.050004426 0.050034221 0.049978122
0.050056621 0.049874447 0.049983554 0.049914565 0.049878448 0.050133131
0.050053291 0.050135411 0.049887657 0.049945895 0.05007983 0.049968679
0.050167385 0.050156705 0.050172348 0.050091043 0.050104305 0.050105494
0.050094415 0.050068188 0.050029799 0.050063368 0.050003797 0.050130222
0.050082058 0.050127685 0.050059088 0.050126079 0.0500669 0.050069142
0.050058074 0.049998336 0.050049063 0.049882386 0.0498689 0.049836352
0.050015055 0.050030481 0.049944539 0.049857773 0.049987275 0.050032705
0.050069693 0.04993096 0.050003756 0.050004244 0.04999363 0.049953043
0.049935296 0.050164387 0.050045643 0.050082266 0.0500714 0.050191481
0.050116073 0.050020069 0.050095018 0.05003202 0.050052166 0.050250031
0.050222304 0.050199036 0.050047535 0.050197206 0.050231483 0.05003652
0.050122265 0.050194312 0.050018411 0.049885388 0.05020719 0.050125897
0.050141495 0.050008915 0.049999721 0.04992675 0.050030306 0.050180282
0.050056476 0.049927142 0.049951155 0.050106175 0.050190739 0.050145142
0.05000297 0.049938031 0.050086994 0.050061759 0.049912632 0.049726356
0.049882866 0.049946185 0.049871389 0.050081942 0.049935009 0.049791712
0.04987466 0.049960103 0.050006412 0.049838569 0.049868047 0.049894433
0.050019 0.04982014 0.049794022 0.049794022 0.049736269 0.049740463
0.049851995 0.049914159 0.049822405 0.049717966 0.049896378 0.049923118
0.049776118 0.049855199 0.049821202 0.049823288 0.049830046 0.049972177
0.049815588 0.049782779 0.049880993 0.049824834 0.049881369 0.049965732
0.050019879 0.049986787 0.050068393 0.049924187 0.050006773 0.049911179
0.049869034 0.050134804 0.050073605 0.050173126 0.049915981 0.049957827
0.050095264 0.049973808 0.050130557 0.050182007 0.050180666 0.050165802
0.050171718 0.050135724 0.050182015 0.050058134 0.050078455 0.050110415
0.050023012 0.050204776 0.050105404 0.050134424 0.050097052 0.050132718
0.050188694 0.050127402 0.050020713 0.049987584 0.050032847 0.0499148
0.049890254 0.049833495 0.049987063 0.049976788 0.049906984 0.04989332
0.049924355 0.050005257 0.050132725 0.050005112 0.049970925 0.050012592
0.050008744 0.050000388 0.049924336 0.050103292 0.050062928 0.050117929
0.050159387 0.050242193 0.050197106 0.050058004 0.050166007 0.050135255
0.050075654 0.050263453 0.050216839 0.050229527 0.050104368 0.050268453
0.050343219 0.050154995 0.050096042 0.050149646 0.050101895 0.049954917
0.05022895 0.050133538 0.050128836 0.050029371 0.049998384 0.049927831
0.050068062 0.050177913 0.050088618 0.050051823 0.049977429 0.050092988
0.05023152 0.050105143 0.049996499 0.04994496 0.050028671 0.050025478
0.049908757 0.049739499 0.049828663 0.049854815 0.049799848 0.050041892
0.049912415 0.049783189 0.049839068 0.049849503 0.049945623 0.04976663
0.049851198 0.049841464 0.049941 0.049809001 0.049786001 0.049786001
0.049631383 0.049653403 0.049780346 0.049873278 0.049717356 0.049669478
0.049878232 0.049867488 0.049778007 0.049811739 0.049687281 0.049816348
0.049801718 0.049899362 0.049836535 0.049725443 0.049821958 0.049772449
0.049809046 0.049895678 0.049995907 0.050008468 0.050045446 0.049969014
0.05002537 0.049925227 0.049892064 0.050122209 0.05008585 0.050182082
0.049957171 0.049992982 0.050133605 0.050017901 0.050104409 0.050165452
0.050182547 0.050270323 0.050261654 0.050164741 0.050251644 0.050056547
0.050155569 0.050171576 0.050057393 0.050259244 0.050119184 0.050159663
0.050140452 0.050160512 0.050279323 0.050180446 0.05001558 0.049982086
0.0500094 0.049958296 0.049930759 0.049864776 0.049955096 0.04991509
0.049859907 0.049938738 0.049872279 0.049986403 0.050210476 0.050042275
0.049939271 0.05003259 0.050022814 0.050040483 0.049952462 0.050035913
0.050109927 0.050179373 0.050245278 0.050277028 0.050284106 0.050147139
0.050232098 0.050257619 0.050112132 0.050283089 0.050239529 0.050282795
0.050195746 0.050310917 0.05039528 0.050283518 0.050087597 0.050121058
0.050199952 0.050047185 0.050247926 0.050132982 0.050125077 0.05005946
0.050027095 0.049981136 0.050106678 0.050164085 0.050114006 0.050147779
0.05001704 0.050079044 0.050203219 0.050040871 0.049996145 0.049955741
0.049950499 0.049948309 0.049912203 0.049787883 0.049777482 0.049754642
0.049718536 0.049959451 0.049860924 0.049759932 0.049791925 0.04975592
0.049870785 0.049725726 0.049837522 0.049755577 0.049816042 0.049813002
0.049785029 0.049785029 0.049538396 0.04956628 0.049698386 0.04979213
0.049598321 0.049627613 0.049820345 0.049783923 0.049764022 0.049769755
0.049607698 0.049785856 0.049742993 0.049806125 0.049833138 0.049710818
0.049753305 0.049736202 0.049753059 0.049811874 0.049957499 0.050013829
0.049985386 0.049982838 0.050043888 0.049942497 0.049947638 0.050113913
0.050086606 0.050176319 0.050007291 0.050034072 0.050187465 0.050084405
0.050108071 0.050143391 0.050187416 0.050357725 0.050337233 0.050201021
0.050294898 0.050082274 0.050248288 0.050256245 0.050108995 0.050295833
0.050151121 0.050193295 0.050201952 0.050227292 0.050305881 0.050208237
0.05006868 0.050009772 0.049999628 0.049987707 0.049973227 0.049922124
0.049935296 0.049874235 0.04981662 0.049974766 0.049850132 0.049974766
0.050267212 0.050031353 0.049933475 0.050076243 0.050029747 0.050065219
0.050014496 0.050004441 0.050179474 0.050247047 0.050303116 0.050303005
0.050369021 0.050261337 0.050299317 0.050373062 0.050159518 0.050321024
0.05031031 0.050368916 0.050306343 0.050330024 0.050387658 0.050403509
0.050130118 0.050126024 0.050290786 0.050145533 0.050270502 0.050155651
0.050151978 0.050098397 0.050081804 0.050066259 0.050123639 0.050160468
0.050131638 0.050154686 0.050032284 0.050075501 0.050141089 0.049968388
0.049995273 0.049968701 0.049861357 0.04985458 0.049887259 0.049814776
0.049756341 0.04968439 0.049656361 0.049848549 0.049780775 0.049689993
0.049729746 0.049694568 0.049779061 0.049711894 0.049826846 0.049671758
0.049684245 0.049798008 0.049752068 0.049752068 0.049469285 0.049480166
0.049611285 0.049665943 0.049461 0.049577497 0.049715493 0.049690373
0.049730867 0.049719118 0.049577247 0.049741015 0.049659435 0.049700011
0.049782936 0.049720332 0.049697831 0.049706977 0.049720567 0.049733326
0.049901988 0.049984604 0.049902085 0.049961891 0.050055321 0.049945571
0.050021287 0.050128695 0.05008854 0.050171982 0.05004805 0.050067827
0.050238736 0.050160378 0.050148457 0.050166544 0.050209053 0.050406177
0.050378386 0.050237045 0.050329756 0.050148908 0.050338715 0.050364226
0.050184328 0.050326377 0.050215103 0.050241381 0.050292034 0.05031525
0.050280679 0.050208062 0.050160985 0.050081804 0.050014969 0.050003208
0.050008599 0.049976625 0.049939834 0.049872346 0.049792442 0.050001446
0.049877059 0.049964875 0.050270095 0.050000224 0.049960356 0.050134744
0.050034579 0.050082672 0.050099347 0.050034095 0.050253037 0.050291024
0.050333001 0.050336093 0.050451063 0.050370708 0.050378852 0.050468788
0.050235141 0.050379828 0.050415512 0.050470859 0.050409142 0.050345194
0.050364956 0.050512899 0.050223421 0.05017776 0.05037022 0.05024533
0.050299775 0.050210942 0.050203856 0.050149709 0.050145809 0.050143853
0.05012846 0.05017687 0.050137188 0.050075412 0.050012846 0.050086312
0.050089285 0.049894929 0.049974889 0.04996632 0.049769592 0.049762782
0.049824301 0.04979451 0.04975554 0.049650192 0.049616367 0.049725514
0.049683105 0.049571246 0.049663074 0.049666408 0.049666699 0.049689151
0.049816061 0.04961795 0.049567576 0.049737092 0.049681056 0.049681056
0.049420156 0.049379174 0.0495193 0.049518991 0.049317192 0.049512386
0.049558345 0.049584776 0.049671743 0.049656853 0.049566858 0.049685534
0.049574021 0.049584527 0.049679752 0.049719512 0.049674101 0.04967713
0.049691267 0.049667355 0.049833588 0.049925808 0.049825355 0.049920242
0.050050896 0.049921498 0.050081085 0.050171401 0.050100736 0.0501744
0.050062004 0.050088186 0.050275441 0.050239284 0.050210647 0.050244328
0.050267126 0.050427902 0.050389249 0.050278153 0.050380699 0.050259095
0.050425805 0.050476503 0.050279967 0.050374415 0.050308209 0.050320957
0.050403733 0.050391793 0.050242901 0.050194569 0.050250385 0.050178315
0.05005889 0.050026026 0.050040089 0.050004344 0.049975738 0.049919508
0.04980747 0.050021008 0.049945168 0.049954344 0.050224215 0.049985949
0.05001713 0.050194331 0.050051473 0.050108194 0.050185163 0.050124001
0.050324108 0.050301194 0.050355151 0.05038638 0.050544601 0.050468586
0.050465032 0.050543103 0.050356437 0.050458748 0.050524779 0.050568409
0.050491806 0.050385632 0.050380278 0.050603367 0.050346613 0.050275084
0.050439049 0.05034421 0.050339341 0.050281607 0.050260268 0.050211892
0.050199259 0.050194081 0.050139897 0.050197806 0.050131019 0.049966723
0.049976163 0.050104737 0.050068278 0.049825363 0.049915727 0.049926721
0.049684901 0.049685452 0.049744599 0.04973805 0.049742226 0.049627237
0.049576808 0.049597859 0.049586963 0.049433503 0.049595263 0.049650125
0.049539845 0.049623486 0.049798314 0.049584046 0.049474776 0.049634263
0.049581025 0.049581025 0.049362101 0.049251404 0.049425408 0.04938747
0.049188856 0.049429595 0.049360678 0.049452789 0.049580473 0.04958557
0.049549483 0.049620073 0.049504485 0.049464561 0.049545884 0.049682476
0.049666051 0.049641807 0.049642347 0.049612142 0.049760725 0.049866013
0.049778894 0.04987102 0.050024398 0.049871407 0.050097562 0.050224822
0.05011218 0.050183482 0.050050691 0.05010077 0.050302394 0.050312977
0.050269827 0.050347354 0.050369617 0.050450429 0.050387129 0.050336786
0.050462149 0.050399877 0.050526079 0.050571512 0.05038555 0.050460558
0.050417073 0.050432175 0.050522361 0.050438639 0.050230108 0.050183505
0.050315283 0.050263654 0.05012536 0.050071925 0.050076753 0.050008003
0.050041668 0.050007567 0.049871653 0.050031599 0.050021507 0.049942188
0.050160609 0.050001722 0.050094113 0.050243162 0.050086629 0.050160035
0.050247114 0.050259009 0.050401371 0.050304346 0.050395552 0.050453875
0.050663508 0.050573025 0.050546825 0.050602883 0.050506365 0.050558556
0.050627235 0.050651725 0.05056674 0.050470423 0.050455958 0.050671
0.050475888 0.050401665 0.050490458 0.050431564 0.050389934 0.050344411
0.050315958 0.050277121 0.050227221 0.050225597 0.050164312 0.050194703
0.0501169 0.04989554 0.049947746 0.050106339 0.050059795 0.0497679
0.049817111 0.049845517 0.049625482 0.049620561 0.04966088 0.049667012
0.049684484 0.049585402 0.049513787 0.049470663 0.049506366 0.049305677
0.04951331 0.049621377 0.049418237 0.049514852 0.049758732 0.049531903
0.049407735 0.049511369 0.049468007 0.049468007 0.049267109 0.049112927
0.049327321 0.049288496 0.049089093 0.049327258 0.049163334 0.049288664
0.049452934 0.049495786 0.049508329 0.04954708 0.049449723 0.049352106
0.049425349 0.049598955 0.049621467 0.049592145 0.049561962 0.049563631
0.049694229 0.049837656 0.049762119 0.049817462 0.049987342 0.049811076
0.050057136 0.050261732 0.050100945 0.050184518 0.050029695 0.050111096
0.05032393 0.05036626 0.050307754 0.050442819 0.050498348 0.050484862
0.050394651 0.050427891 0.05057203 0.050546356 0.050651815 0.050642375
0.050499752 0.050595559 0.050532546 0.050554968 0.050630599 0.050471168
0.050251123 0.050186962 0.050362483 0.050302371 0.050191358 0.050144073
0.050123125 0.050007991 0.050134897 0.050112244 0.049967792 0.050027311
0.050066933 0.049927212 0.050103262 0.050042707 0.050168388 0.050268263
0.050126314 0.050242107 0.050282348 0.050418016 0.050491177 0.05033721
0.050471604 0.050537031 0.05080701 0.050697766 0.050623164 0.050653882
0.050647803 0.050684005 0.050737366 0.050731059 0.05065668 0.050592929
0.050569251 0.050714362 0.050598748 0.050526101 0.050514735 0.050502524
0.050461128 0.050398659 0.050370801 0.050329007 0.050225854 0.050252981
0.050181065 0.050149988 0.050104827 0.049892459 0.049943991 0.050069097
0.050037175 0.049732719 0.049700297 0.049741004 0.049601488 0.049552735
0.049567103 0.049591422 0.049575742 0.049517933 0.049421873 0.049344171
0.049443971 0.04918753 0.049399417 0.04956213 0.049318258 0.049386118
0.04967723 0.049433582 0.049366575 0.049392302 0.049362998 0.049362998
0.049138151 0.049001344 0.04921687 0.049215648 0.049017102 0.049208138
0.049021214 0.049113046 0.049303137 0.049368817 0.049424872 0.049473587
0.049400207 0.049267687 0.049353104 0.04948188 0.049492776 0.049510859
0.049457919 0.049518913 0.049639713 0.049854513 0.049755085 0.049757954
0.049962126 0.049771767 0.04997709 0.050259929 0.050051779 0.050160784
0.050022271 0.050117351 0.050337072 0.050386969 0.050327457 0.050517842
0.050623145 0.050523464 0.050440453 0.050550982 0.050681304 0.050664034
0.050792392 0.050700624 0.050629199 0.050765164 0.050650261 0.050663244
0.050715495 0.050523911 0.050300136 0.050217155 0.050412584 0.050266858
0.050227288 0.050220788 0.050175399 0.050018892 0.050240848 0.050199624
0.05005759 0.050005153 0.050062105 0.049898308 0.050048925 0.050097976
0.050203886 0.050249994 0.050151866 0.050330848 0.050320558 0.050574381
0.050589107 0.050414007 0.050578073 0.050651312 0.05096541 0.050836295
0.050709389 0.050702468 0.050753165 0.05083314 0.050873309 0.050817609
0.050767239 0.050726153 0.050686974 0.050744634 0.050710507 0.050625689
0.05051307 0.050564658 0.050558209 0.050459009 0.050428666 0.050350033
0.050205398 0.050278373 0.050168011 0.050074939 0.050100446 0.049942378
0.049955994 0.049998242 0.050002281 0.049719971 0.049599838 0.049645968
0.04959679 0.049474005 0.049450904 0.049501318 0.049426563 0.049443007
0.049318705 0.04922346 0.049385861 0.049064647 0.049249649 0.04947665
0.049243532 0.049261212 0.049548585 0.049292319 0.049343478 0.049283162
0.049284998 0.049284998 0.049011178 0.0489471 0.049079362 0.049144
0.048959251 0.049083441 0.048970554 0.048957683 0.049166683 0.049207307
0.049279153 0.049395818 0.049338639 0.049233366 0.049331918 0.04934955
0.049288061 0.049393956 0.049347401 0.049474478 0.049590584 0.049899582
0.049735535 0.049702216 0.049968842 0.049791235 0.049897317 0.050200984
0.049978144 0.050107624 0.050046246 0.050114062 0.050337426 0.050385077
0.050343942 0.05058391 0.050728612 0.050563693 0.050548986 0.050692815
0.050755873 0.050733473 0.050917085 0.05077216 0.050783433 0.050943535
0.050771527 0.050736155 0.050775584 0.050612181 0.050377138 0.050295789
0.050468605 0.050165288 0.050199211 0.05027974 0.05021954 0.050049383
0.050322052 0.050242122 0.050097946 0.049963117 0.050017696 0.049842395
0.049969137 0.050147578 0.050165534 0.050172035 0.050153255 0.050383165
0.050387837 0.05070382 0.050668217 0.050523099 0.050680589 0.050828278
0.051114246 0.050974134 0.050818704 0.050764371 0.050834309 0.050992977
0.051026259 0.050915964 0.050887704 0.050843641 0.050795451 0.050778314
0.050809387 0.0506947 0.050507698 0.050647665 0.050678525 0.05054028
0.050490107 0.050332788 0.050175279 0.050284747 0.050128754 0.050011236
0.050104339 0.050010599 0.049962942 0.049930315 0.049974915 0.049712859
0.049542222 0.049593966 0.049578425 0.049389195 0.049323056 0.049370117
0.049252823 0.049382534 0.049229983 0.049116462 0.049312312 0.048932772
0.049088001 0.049371257 0.049188256 0.049151197 0.049392737 0.049138255
0.049318537 0.04917806 0.049234007 0.049234007 0.048922155 0.048946522
0.048912108 0.049060207 0.048901774 0.048976678 0.048994068 0.04883685
0.049080491 0.049050182 0.049079511 0.049296118 0.049257357 0.049259014
0.049317416 0.049222462 0.049079593 0.049253255 0.049256671 0.049426969
0.049529266 0.049923994 0.0496962 0.049666587 0.050001737 0.049888615
0.049858149 0.050078083 0.049915094 0.050043251 0.050103102 0.050102603
0.05033588 0.050391946 0.050381057 0.050660595 0.05082358 0.050624501
0.050722942 0.0508276 0.050784804 0.050769627 0.050995726 0.050873633
0.05095255 0.051109683 0.050891962 0.050783236 0.050808325 0.050734051
0.050479218 0.05043833 0.050513227 0.050050758 0.050107025 0.050307095
0.050240055 0.050093181 0.050318006 0.050220005 0.050057225 0.04990517
0.049964901 0.049754478 0.049844723 0.050158475 0.050046433 0.050038237
0.050138775 0.05036471 0.050467908 0.050795104 0.05070255 0.050643019
0.050747059 0.05106381 0.051240347 0.051105347 0.050950002 0.050865039
0.050929587 0.051157385 0.0511631 0.051018823 0.051009011 0.050940659
0.050912395 0.050830178 0.050890457 0.050742339 0.050527021 0.05077773
0.050802588 0.050630994 0.050557505 0.050304547 0.050155606 0.05025306
0.050093755 0.050002132 0.050116569 0.050068937 0.049954224 0.04990996
0.049975481 0.049687333 0.049531456 0.049599417 0.04951768 0.049315449
0.049211998 0.049185965 0.049073026 0.049344465 0.049176041 0.049043391
0.049200583 0.048808265 0.04895116 0.049253114 0.049141914 0.049059164
0.049244821 0.048998382 0.049267799 0.04907402 0.049185079 0.049185079
0.04887208 0.048966292 0.048744064 0.048970122 0.048840687 0.048908394
0.049026351 0.048747309 0.049053833 0.048958521 0.048878919 0.049162965
0.049155459 0.049320828 0.049250729 0.049109504 0.048958004 0.049117997
0.049204212 0.049379107 0.049442217 0.049886249 0.049652737 0.049667314
0.050019104 0.050030611 0.049875423 0.04991027 0.049894746 0.049998652
0.050177485 0.050092738 0.050359167 0.050435577 0.050452333 0.050745815
0.050924674 0.050735548 0.050921779 0.050927408 0.050797231 0.050812811
0.051026504 0.051007349 0.051107008 0.051251054 0.051011071 0.050831396
0.050834 0.050849978 0.050608244 0.050616663 0.050549261 0.049979694
0.050006874 0.050274666 0.050241932 0.05010825 0.050202727 0.050124157
0.049938016 0.049822301 0.049919277 0.049632724 0.049679074 0.050089676
0.049871955 0.04988547 0.050120641 0.050275046 0.050501425 0.050836433
0.050690323 0.050764386 0.050778173 0.051297102 0.051358424 0.051207267
0.051107619 0.051004354 0.051079132 0.05131913 0.051249307 0.051128011
0.051134508 0.051030003 0.05105627 0.050913062 0.050947957 0.050784554
0.050591707 0.050950728 0.05089584 0.050698847 0.050640363 0.050310723
0.050165873 0.050187893 0.050094638 0.050058831 0.050136972 0.050105397
0.049934413 0.049954496 0.049993027 0.049640894 0.049549535 0.049650788
0.049416889 0.049268208 0.049136866 0.048978362 0.048912723 0.049314179
0.049163621 0.049019396 0.049038522 0.048714973 0.048864648 0.049118225
0.049095821 0.048983216 0.049126979 0.04888666 0.049176246 0.048980005
0.049104374 0.049104374 0.048823006 0.048961647 0.048621118 0.048877686
0.048783947 0.048866641 0.049000554 0.048680194 0.04904864 0.048971623
0.048757896 0.049010064 0.049043376 0.049360592 0.049107414 0.049010057
0.048966661 0.049024109 0.04919285 0.049335808 0.04933247 0.049783796
0.049627826 0.049697556 0.049974587 0.050141089 0.049922679 0.049752288
0.049920283 0.050000999 0.050246689 0.050102148 0.050425369 0.050514504
0.050557733 0.050825614 0.0510289 0.050902762 0.051083408 0.05098819
0.050835449 0.050898369 0.05103983 0.051152147 0.051234003 0.05136019
0.051143229 0.050896768 0.050900068 0.050912812 0.050756749 0.050780084
0.050586622 0.050015777 0.04994861 0.05018938 0.050201446 0.050059423
0.04997636 0.049980469 0.049764358 0.049704324 0.049860071 0.049480468
0.049493842 0.049918588 0.04968369 0.049765557 0.050107237 0.050152164