# vtk DataFile Version 3.0
axinsert(project(???,0,L2),2)
ASCII
DATASET STRUCTURED_POINTS
DIMENSIONS 256 1 1
ORIGIN 0 0 0
SPACING 1 1 1
POINT_DATA 256
SCALARS nrrd64065 float
LOOKUP_TABLE default
0 0 0 0 0 0 0 0 0 0 0 0 0 0 0 0 0 0 0 0 0 0 0 0 0 0 0 0 0 2.4494898e-06
1.9261361e-05 0.00013557654 0.00094906584 0.0063106953 0.038957626
0.21529131 0.97627109 2.2966418 1.4370887 1.5375365 1.3544259 0.94185168
1.1587495 1.564435 1.8228683 1.7571405 1.5248927 1.8028948 1.7557693
1.6465318 2.0406313 2.4769013 2.095921 1.6256797 1.295615 1.1040194
0.99853355 0.93598932 0.89490414 0.86575061 0.84324706 0.82456154
0.80800259 0.79287666 0.77892745 0.76604497 0.75390774 0.74248207
0.73167813 0.72142994 0.71166295 0.70230794 0.69337487 0.68490702
0.67635101 0.66811311 0.66040146 0.65294367 0.64565611 0.63857067
0.63177383 0.62525731 0.61886823 0.61260521 0.6063596 0.60136282 0.59674847
0.59270012 0.58895969 0.58537197 0.58169562 0.57773668 0.573524 0.56934202
0.56554955 0.56231433 0.55954051 0.5570972 0.55450815 0.5512991 0.54826766
0.54492635 0.54154831 0.53845918 0.53557414 0.53265685 0.5294261 0.52576286
0.52159542 0.51638097 0.50880212 0.49877381 0.48440889 0.4682343 0.45478475
0.44610307 0.44478449 0.45122203 0.47283563 0.55018282 0.65572596
0.71150166 0.73448557 0.74935198 0.75407058 0.74134922 0.71089482
0.64361316 0.64361316 0.6514436 0.64203733 0.58703303 0.50725037 0.4430756
0.41413301 0.3858045 0.34361461 0.2923882 0.24539171 0.2228515 0.22103411
0.22957252 0.24169886 0.25230202 0.26093185 0.26926467 0.27831718
0.28776392 0.29650518 0.30383238 0.30902281 0.31189993 0.3127279 0.31289881
0.31285468 0.31312633 0.31773305 0.32514066 0.33519867 0.34675869
0.36026001 0.3726151 0.38499787 0.40024403 0.42221069 0.44994742 0.48077819
0.51265109 0.54666597 0.58581281 0.63164115 0.68284458 0.73592848
0.78711396 0.83275437 0.8706876 0.89853495 0.91602927 0.92465127 0.92278284
0.91131651 0.89132994 0.86389101 0.83038676 0.79325426 0.75402647
0.71320349 0.6646539 0.6034134 0.54090065 0.49197981 0.45860341 0.43167037
0.41400155 0.39145824 0.34528229 0.27697277 0.17669198 0.075340874
0.014768654 0.0013743973 0.00011775398 9.1104339e-06 0 0 0 0 0 0 0 0 0 0 0
0 0 0 0 0 0 0 0 0 0 0 0 0 0 0 0 0 0 0 0 0 0 0 0 0 0 0 0 0 0 0 0 0 0 0 0 0 0
0 0 0 0
