# vtk DataFile Version 3.0
axinsert(project(permute(???,2,0,1),0,L2),2)
ASCII
DATASET STRUCTURED_POINTS
DIMENSIONS 128 256 1
ORIGIN 0 0 0
SPACING 1 1 1
POINT_DATA 32768
SCALARS nrrd92288 float
LOOKUP_TABLE default
0.049988031 0.049927112 0.049979307 0.050012644 0.050056003 0.050014015
0.050007004 0.05001903 0.050034005 0.049978029 0.04995703 0.050006684
0.050031513 0.049990196 0.050055303 0.050032012 0.049968205 0.049985021
0.049946018 0.04996518 0.050031371 0.050020047 0.050056532 0.050009228
0.049962316 0.049963363 0.049940459 0.050009146 0.050045114 0.04997503
0.049992345 0.050023057 0.050001141 0.049959019 0.049953695 0.050076846
0.050059065 0.050043058 0.049960271 0.04989228 0.050010204 0.049997058
0.050013673 0.050006032 0.050005697 0.04996407 0.049998183 0.050057199
0.049967133 0.049939226 0.049992416 0.050103966 0.050064258 0.04997411
0.049983125 0.0500331 0.050012216 0.049975228 0.050003469 0.050014179
0.050014004 0.04990425 0.049965732 0.050028026 0.050049026 0.050074544
0.050009202 0.049983207 0.049976017 0.049998078 0.050019741 0.049973037
0.049974058 0.050016269 0.049960006 0.049933001 0.05000313 0.050060533
0.050081898 0.049993109 0.049967382 0.049939018 0.049952004 0.050042093
0.050021082 0.050004002 0.050067104 0.050000444 0.049958009 0.049981184
0.049982 0.050020006 0.049994845 0.049952071 0.05002901 0.049988024
0.049996998 0.049934108 0.050007097 0.050026007 0.050073527 0.050070178
0.049928047 0.050029382 0.05000503 0.050010901 0.049979005 0.049994133
0.049986999 0.0499941 0.050005578 0.049958095 0.049942002 0.049995404
0.050038092 0.050067 0.050033104 0.049955275 0.049982298 0.049953315
0.050013334 0.049997006 0.050006486 0.050058033 0.050035156 0.049991012
0.049986079 0.049986079 0.049912728 0.049930334 0.049996998 0.050041266
0.050062124 0.05004596 0.050039086 0.050010249 0.050051332 0.050039202
0.049865 0.049994651 0.050073024 0.05002496 0.050092999 0.049963303
0.049882241 0.050051603 0.04993163 0.049854148 0.050116122 0.050006017
0.050137628 0.05001533 0.049964093 0.049990099 0.049816094 0.050007399
0.05006212 0.049948558 0.049928259 0.050031863 0.050032642 0.049867567
0.049905166 0.050138291 0.050119676 0.05007242 0.049968287 0.049750924
0.049999341 0.050046004 0.050077867 0.049972296 0.049980972 0.049975224
0.049964707 0.050074223 0.049972642 0.049833428 0.049987681 0.050291482
0.050096255 0.050013572 0.050023999 0.050006103 0.050040077 0.050075479
0.049903024 0.049908541 0.050141394 0.049864005 0.049953096 0.050228219
0.050106466 0.050099138 0.050050404 0.050018121 0.050019823 0.050015695
0.049993161 0.049893059 0.049894419 0.049970742 0.049934 0.049840949
0.049948018 0.050144754 0.050040081 0.049979046 0.050020095 0.049993027
0.05010505 0.049996033 0.049990501 0.050096493 0.050050661 0.049914367
0.049933102 0.050063275 0.049961735 0.050111655 0.050003894 0.049943049
0.049921639 0.049891539 0.049974374 0.050018914 0.050016332 0.050063834
0.050229631 0.05004961 0.049961504 0.04997753 0.050032545 0.049988192
0.04975228 0.049986135 0.050088469 0.050045926 0.050019972 0.049854346
0.049853716 0.050068282 0.050123952 0.050165709 0.049906161 0.049936306
0.049897145 0.04986218 0.049958013 0.049991041 0.050107192 0.050126072
0.050013065 0.050025083 0.049929142 0.049929142 0.049852323 0.050099038
0.049978044 0.049968708 0.050041005 0.049995743 0.050035421 0.04996353
0.050003707 0.050090995 0.049901642 0.049986117 0.05004343 0.050055321
0.049961261 0.049759429 0.049977422 0.050105449 0.050028037 0.049874838
0.050075538 0.050000444 0.050017599 0.050069779 0.049981423 0.050076
0.049876682 0.050006472 0.050046306 0.049946036 0.049916595 0.050023273
0.050026897 0.049840041 0.049931757 0.050040085 0.050076682 0.050033458
0.049955413 0.049854629 0.049978722 0.050115187 0.050077319 0.049891762
0.04996264 0.050059754 0.050060906 0.049956962 0.050008159 0.049923692
0.049977858 0.050266117 0.049940504 0.050203528 0.050090324 0.049936578
0.050016932 0.050219733 0.049938187 0.049850158 0.050189011 0.050023004
0.050079051 0.050327215 0.050101373 0.050018284 0.050063238 0.050060209
0.050043382 0.050041117 0.04991978 0.04983709 0.049977124 0.049846262
0.050016005 0.049959153 0.049953084 0.050076179 0.049870867 0.050087869
0.050141137 0.050135203 0.050330795 0.049833987 0.049918585 0.050157808
0.04994807 0.049899135 0.050006531 0.050071377 0.049995311 0.050159514
0.050059143 0.049923468 0.04986538 0.049885992 0.049945008 0.05021308
0.049959544 0.050043799 0.050105467 0.050045051 0.05009678 0.04982283
0.050083835 0.049894717 0.049738009 0.049968343 0.050107226 0.050041795
0.049964853 0.049852271 0.049942151 0.050071061 0.050178565 0.050070349
0.049747262 0.049990453 0.049843345 0.049865607 0.049852192 0.050063081
0.050139442 0.050017092 0.049973 0.050074045 0.049872003 0.049872003
0.049841024 0.050160013 0.049857002 0.049906433 0.050043009 0.049859889
0.04995871 0.049959864 0.050006691 0.050029352 0.049894493 0.049978483
0.050031338 0.050096061 0.049861148 0.049691111 0.050112147 0.050054722
0.049997203 0.049953286 0.049992599 0.050031587 0.049837418 0.050054684
0.049984861 0.05008303 0.049984187 0.050022516 0.050098438 0.049910676
0.049899954 0.050130241 0.05002268 0.049826957 0.049870104 0.049973778
0.050123494 0.050025668 0.049869515 0.049852226 0.049920712 0.050203327
0.050094217 0.049865417 0.049986597 0.050164744 0.050185852 0.049946919
0.050000533 0.050005823 0.049926709 0.050238479 0.049865007 0.050326433
0.050099697 0.049937773 0.0499966 0.050266217 0.050162125 0.050000001
0.050209004 0.050014026 0.050133068 0.050334107 0.05016309 0.050003167
0.050057013 0.05004805 0.050012041 0.050095007 0.049936291 0.049778383
0.050156083 0.049904298 0.050035436 0.05011126 0.050020184 0.05001206
0.049923141 0.050193146 0.050223388 0.050084233 0.050352205 0.049899686
0.049903691 0.050043095 0.049937591 0.049962297 0.050081812 0.049947232
0.049971472 0.050209645 0.050077863 0.049873516 0.049973611 0.049934153
0.049899414 0.05022122 0.049921602 0.050080016 0.049955189 0.050136521
0.050057571 0.049769286 0.050068419 0.04982499 0.04989874 0.049920455
0.05002322 0.049931873 0.049942013 0.04976565 0.049987152 0.050004546
0.050225679 0.050069962 0.049757276 0.05000728 0.049743973 0.049860526
0.049770456 0.050086167 0.050118122 0.049897186 0.049959999 0.05004102
0.049879178 0.049879178 0.049838047 0.050136078 0.049765002 0.049908999
0.049994014 0.049709309 0.049827304 0.049941834 0.050072167 0.049926922
0.049828891 0.04999106 0.050072409 0.05009494 0.049866751 0.049778569
0.050163008 0.049919538 0.049806904 0.049995475 0.049993224 0.050056595
0.049777396 0.049929596 0.049989559 0.050012995 0.050012793 0.050033804
0.050115369 0.049904771 0.049866714 0.050260961 0.050029986 0.049826145
0.049824808 0.049870566 0.050201848 0.05006079 0.049893949 0.049777325
0.049820811 0.050221 0.050157521 0.049860317 0.050035216 0.050285783
0.050226539 0.049988747 0.050107103 0.050067294 0.049892128 0.050231919
0.049928159 0.050281633 0.050121065 0.049985334 0.050042003 0.050156999
0.050276529 0.050196081 0.050237186 0.049918044 0.050165493 0.050272215
0.050191551 0.050075047 0.050061546 0.050053004 0.050022054 0.05014101
0.050088 0.049775664 0.050258044 0.050120827 0.050048694 0.050188407
0.050082956 0.049935021 0.050021626 0.050150238 0.050229192 0.050021347
0.050285004 0.050147511 0.049883243 0.04988452 0.049944028 0.050129656
0.050143257 0.049824249 0.049813624 0.050191987 0.050117012 0.049964249
0.050036352 0.049884968 0.049931936 0.050192539 0.049947102 0.050055604
0.049923651 0.050153729 0.049907956 0.049789768 0.049918186 0.049937461
0.0499941 0.04990888 0.049983732 0.049823754 0.049968291 0.049543422
0.04991392 0.049999017 0.05023852 0.050163094 0.049796104 0.04995716
0.049685918 0.049807202 0.049714111 0.049977191 0.05014215 0.049896244
0.049890012 0.049950004 0.049966268 0.049966268 0.049849518 0.050053064
0.049793076 0.049869675 0.049896032 0.049681999 0.049753014 0.049933024
0.050068356 0.049796712 0.049817 0.050039139 0.05017627 0.05000433 0.049906
0.049918197 0.050141815 0.049760744 0.04962917 0.04992203 0.050115015
0.05000712 0.049854293 0.049877141 0.049986009 0.04992722 0.050022095
0.050026055 0.050041243 0.049954969 0.049961001 0.050325003 0.049944002
0.04984061 0.049847141 0.049702484 0.050260037 0.050107513 0.050015029
0.049739007 0.04978409 0.050198998 0.050184131 0.049856003 0.050087187
0.050337013 0.050183542 0.049982086 0.05033873 0.05014421 0.04991563
0.050196074 0.050085396 0.050125428 0.050137427 0.050044306 0.050116483
0.049958866 0.050172653 0.050313625 0.050156604 0.049931087 0.05019515
0.050055195 0.050133172 0.050211009 0.050076667 0.050149005 0.050014552
0.050140087 0.050265417 0.049809005 0.050206091 0.050238285 0.05013705
0.050225008 0.050122004 0.049819004 0.050005395 0.050075263 0.050144497
0.050043728 0.050177373 0.05037031 0.049816005 0.049959935 0.050024647
0.05033337 0.050187692 0.049725998 0.049665391 0.050088007 0.050203014
0.050167326 0.049942564 0.049810015 0.050065391 0.050214473 0.050010532
0.049837116 0.050019339 0.050055418 0.049829934 0.049790367 0.049770366
0.050168175 0.050008643 0.049918097 0.050026737 0.049798388 0.049884327
0.049406163 0.049817156 0.050106402 0.050258856 0.050254069 0.049752086
0.049808059 0.04968806 0.049717046 0.049712133 0.049885441 0.050138675
0.050000504 0.049787138 0.049909007 0.05006516 0.05006516 0.049875818
0.049971115 0.049963567 0.049757354 0.049753096 0.049770162 0.04983364
0.050024733 0.049934544 0.049659006 0.049829088 0.050087105 0.050274506
0.049897045 0.049905624 0.0500581 0.050058004 0.049724001 0.049570523
0.049780998 0.050240759 0.049891043 0.050009124 0.050050471 0.049992248
0.049902547 0.050115384 0.04995279 0.049903281 0.050039575 0.050208643
0.05026871 0.04976036 0.049920779 0.049869508 0.049662724 0.050222803
0.050132338 0.050140761 0.049781635 0.049876023 0.050209951 0.050193846
0.049839146 0.050087046 0.050316591 0.050033636 0.050053436 0.050412383
0.050171014 0.050007869 0.050184142 0.05021676 0.049939971 0.050048351
0.050049406 0.050234165 0.049761269 0.050000001 0.050290935 0.050007302
0.050091486 0.050172139 0.049705043 0.050059333 0.050273009 0.050091751
0.050289035 0.049966976 0.050111052 0.050263129 0.049841098 0.050096236
0.050131876 0.05022122 0.050222453 0.050124917 0.049709596 0.049932268
0.050088763 0.050000947 0.05007128 0.050001685 0.050454754 0.049823467
0.050232716 0.050276779 0.050383039 0.050251961 0.049686544 0.049766034
0.049996529 0.050243814 0.050257519 0.049797382 0.049853694 0.050190859
0.0502159 0.050078236 0.049594473 0.050126858 0.049975082 0.049846623
0.049849018 0.049732603 0.050338089 0.050009068 0.049866006 0.050134148
0.049869027 0.049646087 0.049560182 0.049753983 0.050284024 0.050289344
0.05026361 0.049695123 0.049573146 0.049733106 0.049685195 0.049785234
0.049923852 0.05006922 0.050106481 0.049656112 0.04996825 0.050065 0.050065
0.04995811 0.050013941 0.050178736 0.049715929 0.049564082 0.049809642
0.049930051 0.050160736 0.049793411 0.049583144 0.049782787 0.050078027
0.050335824 0.049881343 0.049916409 0.050156116 0.049993679 0.049847458
0.049616959 0.049687527 0.050202936 0.049830861 0.050173905 0.050339662
0.050013479 0.049996793 0.050206941 0.049814921 0.049786046 0.050062701
0.050431553 0.050099149 0.049655467 0.050005365 0.049916562 0.049848273
0.050124206 0.050162736 0.050206486 0.04985882 0.050028156 0.050179861
0.050237253 0.049843788 0.050033942 0.050223351 0.049828898 0.050237481
0.050195411 0.050020467 0.050166637 0.050209794 0.05022119 0.04984948
0.04990935 0.049958698 0.050416533 0.049648814 0.049865033 0.050177634
0.049883019 0.050270997 0.050035492 0.049463034 0.049995013 0.050128128
0.050136525 0.050310005 0.049927838 0.050060008 0.050072528 0.049876329
0.050042599 0.049910016 0.050130539 0.050157476 0.050075818 0.04965876
0.049888603 0.050161675 0.049868453 0.050087083 0.049830444 0.050421517
0.049939398 0.050425272 0.050595056 0.050310723 0.05027286 0.04976885
0.050070535 0.05002657 0.050165582 0.050140213 0.049755834 0.050000958
0.050194249 0.050140344 0.05012219 0.049558371 0.050152298 0.05001178
0.04992931 0.049993068 0.049820874 0.05031801 0.050015666 0.049815003
0.05014376 0.049976271 0.04939881 0.049959779 0.049761698 0.050352789
0.050328258 0.050141495 0.049757998 0.04945112 0.049872003 0.049752992
0.04991908 0.049983833 0.049998146 0.050116222 0.049513001 0.050040912
0.049907036 0.049907036 0.050152395 0.050183408 0.050269108 0.04981086
0.049392987 0.049756374 0.049853597 0.050198197 0.049756192 0.049623411
0.049719661 0.049996428 0.050361075 0.050024491 0.050012648 0.050154317
0.050031744 0.050013866 0.049720697 0.049648639 0.050053447 0.049896289
0.050263535 0.050494205 0.050048165 0.050232552 0.050142791 0.049697395
0.049766395 0.049955707 0.050411474 0.049953539 0.049783021 0.050026335
0.05005841 0.050130069 0.050082233 0.050253622 0.050162096 0.049877107
0.050113838 0.050037313 0.050269324 0.049948674 0.049987514 0.050038721
0.049730036 0.050388705 0.049883757 0.049758106 0.050297134 0.0502102
0.050079744 0.049963675 0.049902674 0.049849488 0.050565992 0.049692586
0.049815506 0.050015021 0.049759924 0.050297368 0.049764171 0.049518205
0.049886417 0.049876101 0.050186001 0.050090339 0.049920976 0.049961131
0.049855471 0.049941219 0.049998976 0.049724083 0.049862958 0.050062027
0.050005425 0.049684457 0.049851585 0.050254039 0.049794856 0.050139293
0.049825389 0.050331894 0.050114274 0.050377127 0.050763402 0.050284415
0.050195295 0.049982052 0.050325744 0.050131731 0.050046682 0.049936399
0.049884293 0.050084073 0.050101537 0.049998537 0.050109878 0.049733367
0.050127186 0.050124329 0.050050601 0.050153457 0.050037712 0.050100125
0.050026413 0.049893059 0.049983259 0.050030679 0.049321912 0.050338164
0.049803071 0.050216213 0.050380189 0.049958799 0.049930263 0.049603172
0.050108101 0.04984618 0.05004153 0.04998048 0.049911592 0.050020933
0.049458999 0.050034747 0.049695104 0.049695104 0.050380036 0.050344598
0.050136067 0.049906228 0.049398001 0.049754873 0.049675141 0.050086424
0.04980132 0.049763173 0.049725067 0.049962413 0.05030413 0.05024213
0.050139181 0.050060179 0.050098285 0.050124072 0.049836133 0.04968014
0.04997896 0.050013371 0.050243318 0.050403103 0.050105736 0.050504707
0.049947441 0.049723178 0.049795792 0.049811758 0.050142359 0.04996822
0.050085276 0.050021213 0.050222199 0.050318763 0.050163068 0.050391916
0.050015133 0.049824856 0.050083604 0.049887192 0.050182998 0.050160531
0.049972575 0.04985657 0.049816795 0.050346907 0.049754024 0.049655832
0.050294623 0.050092392 0.049924832 0.050223745 0.050077129 0.049800713
0.050515071 0.049849659 0.049876623 0.049787287 0.049607441 0.050110333
0.049479019 0.049739733 0.049740963 0.049757071 0.050041385 0.049714465
0.049957134 0.049798284 0.04971325 0.050017979 0.049816519 0.049601205
0.049657051 0.050008111 0.049958032 0.049774125 0.049782008 0.05034757
0.049788509 0.050157879 0.050044831 0.050258167 0.050326139 0.050197896
0.050679814 0.050293732 0.050162371 0.050242718 0.050365962 0.050138742
0.049993508 0.04982825 0.050097965 0.049991436 0.050017778 0.049858853
0.05003012 0.049979392 0.050132897 0.050253805 0.05016252 0.050269887
0.05027134 0.049867071 0.05003484 0.050096899 0.049787793 0.050027937
0.049489632 0.050403032 0.049860358 0.050004002 0.050351609 0.049867868
0.050075002 0.049911171 0.050330099 0.049890228 0.050075024 0.049978174
0.049824011 0.04984301 0.049637783 0.0499443 0.049596693 0.049596693
0.050468124 0.050385501 0.049855135 0.049875662 0.049675647 0.049888879
0.049599007 0.049933948 0.049855303 0.049920596 0.049831126 0.050068032
0.050176386 0.050290119 0.05020633 0.049991515 0.050027385 0.050161347
0.049964465 0.049822673 0.050032407 0.05006877 0.050175622 0.050190341
0.050184887 0.050612107 0.049792647 0.049908787 0.049755242 0.049776129
0.049901359 0.050118864 0.050338935 0.050033256 0.050267097 0.050353326
0.050326634 0.050481405 0.049870275 0.049799919 0.049997859 0.04985607
0.050030306 0.050346587 0.049967088 0.049846485 0.049976956 0.050075244
0.049836531 0.049819708 0.050228372 0.049874689 0.049925108 0.050405283
0.050252255 0.049796771 0.050227977 0.049951669 0.049962714 0.049562514
0.049459543 0.049818251 0.049368065 0.049816091 0.049667008 0.049768403
0.049621046 0.049440172 0.050023016 0.049626619 0.049611665 0.050035588
0.049497474 0.049489114 0.049695119 0.049985863 0.049923595 0.049911227
0.049752641 0.05036658 0.049822841 0.050051499 0.05032387 0.050303858
0.050518755 0.050092056 0.050412197 0.050230868 0.050313894 0.050437976
0.050233725 0.049985331 0.050014596 0.04987159 0.050196052 0.049872085
0.049992818 0.049771361 0.049946535 0.050197665 0.050217584 0.050378326
0.050264526 0.050268438 0.050359234 0.049847495 0.050030235 0.050260548
0.049732115 0.05005588 0.049820188 0.050170429 0.049953472 0.049874227
0.05017931 0.049874067 0.050118245 0.050125014 0.050397404 0.049879052
0.050042871 0.050038185 0.049844533 0.049656998 0.049987853 0.049831361
0.049661517 0.049661517 0.050347552 0.050284453 0.049667098 0.049760103
0.050103609 0.050028037 0.049688015 0.04988268 0.049886018 0.050029561
0.050007794 0.050216876 0.050088998 0.050062552 0.050238084 0.050065264
0.049820542 0.050106294 0.050108518 0.050007809 0.050100174 0.050078064
0.05014953 0.050004821 0.050246574 0.050480966 0.049784049 0.050105885
0.049659874 0.049894888 0.049932633 0.050256625 0.050369408 0.05008005
0.050192568 0.050312947 0.050448231 0.050457757 0.049840141 0.04989684
0.049957737 0.049942657 0.049997669 0.050381415 0.049948882 0.050054312
0.050042097 0.049744546 0.049920686 0.050090082 0.050182726 0.049722392
0.050057188 0.05032951 0.05025189 0.049804952 0.049857892 0.049881496
0.049937271 0.049463145 0.049367081 0.049544003 0.049475167 0.049627516
0.049630877 0.049690004 0.04917071 0.04942013 0.050015114 0.049544666
0.049527731 0.049941853 0.049254239 0.049420722 0.04987824 0.049910113
0.049875803 0.050047509 0.049856085 0.050233062 0.049906775 0.049906701
0.050444085 0.050431371 0.050597765 0.050120372 0.050165169 0.050131775
0.050544243 0.050506424 0.050092902 0.04983595 0.05003589 0.049958136
0.050100796 0.049956191 0.050031517 0.049715597 0.049966451 0.050365016
0.050337397 0.050494161 0.050334267 0.050103802 0.050287638 0.05004701
0.050013319 0.050242223 0.049885496 0.050178301 0.050155334 0.049933065
0.050035123 0.049848095 0.049915038 0.049886011 0.050096534 0.050160062
0.050286599 0.049848218 0.050021034 0.050112169 0.049993016 0.049659435
0.050191361 0.049748626 0.049803559 0.049803559 0.050153114 0.050055344
0.049741279 0.049714103 0.05036306 0.05004501 0.049841087 0.049963646
0.049900249 0.050101738 0.050147235 0.050282728 0.050124157 0.049789306
0.050303727 0.050236765 0.049710706 0.049952462 0.050182462 0.050109915
0.05009703 0.05013245 0.0501935 0.049869843 0.05024321 0.050249211
0.049872395 0.050159138 0.049696326 0.050064202 0.050134458 0.050277539
0.050235342 0.050170373 0.050166272 0.050275035 0.050417542 0.050368842
0.049959343 0.050103277 0.050029706 0.050053295 0.050133459 0.050308544
0.049941365 0.050314352 0.049997289 0.049542956 0.04988103 0.05025214
0.050103184 0.049720194 0.05011759 0.050039154 0.05011078 0.049843516
0.049585182 0.049715608 0.049746845 0.049487397 0.049362898 0.049292069
0.049623039 0.049368009 0.049487107 0.049430974 0.048949063 0.049511977
0.049782004 0.049547721 0.049524788 0.049767561 0.049275059 0.049509898
0.049961202 0.049783535 0.049836963 0.050091553 0.050058682 0.05004219
0.050067913 0.049916334 0.050345518 0.050417833 0.050512537 0.050254017
0.050114986 0.050144304 0.050634254 0.050439566 0.050055683 0.049887486
0.050008543 0.049998581 0.04997807 0.050234277 0.050121572 0.049715329
0.050143365 0.050458476 0.050368112 0.05052188 0.050292648 0.049883272
0.050214838 0.050254703 0.049996853 0.050121527 0.050143793 0.050345026
0.050348576 0.049893409 0.050033528 0.049858555 0.049662944 0.049913
0.050079998 0.050114091 0.050110977 0.04983009 0.05002477 0.050126001
0.050175052 0.049918085 0.050119594 0.049677271 0.049919453 0.049919453
0.050087046 0.049789608 0.049960773 0.049822047 0.050260011 0.049985901
0.049937125 0.050100222 0.049938045 0.050179999 0.050190479 0.050283052
0.050201539 0.049790189 0.050375171 0.050325178 0.049845934 0.049831528
0.050109994 0.050112523 0.050091691 0.050224703 0.050240599 0.049781784
0.050213646 0.050064672 0.049932554 0.050072867 0.049965534 0.050130118
0.050194662 0.050250702 0.050143991 0.05028579 0.05028452 0.050244927
0.050278164 0.050285503 0.050164137 0.050325379 0.050194643 0.050132383
0.050282642 0.050262008 0.050014433 0.050437964 0.049946707 0.049516954
0.049791157 0.050229598 0.049927995 0.049775157 0.049986623 0.049725369
0.049951255 0.049917378 0.049448535 0.049568139 0.049477912 0.049492057
0.049442437 0.049093306 0.049586065 0.049234141 0.049271658 0.049098607
0.048956536 0.049474519 0.049309567 0.049501378 0.049614076 0.0496023
0.049509063 0.049764976 0.049837492 0.049697474 0.049843751 0.050002158
0.050231911 0.049988415 0.05025715 0.050125498 0.050166868 0.050159477
0.050346769 0.050423276 0.050220918 0.050299417 0.050533559 0.050282098
0.050127119 0.050145477 0.049988888 0.050057646 0.050040439 0.050430324
0.050202176 0.04988214 0.050419401 0.05043212 0.050258055 0.050342284
0.050153635 0.049834821 0.050211474 0.050317407 0.050008468 0.050126605
0.050304011 0.050398424 0.050380461 0.04998808 0.049972128 0.049884107
0.049552079 0.049992006 0.050085004 0.050036002 0.049998987 0.049863007
0.050022513 0.050083023 0.050260823 0.050205305 0.049935091 0.049674168
0.049994003 0.049994003 0.050128818 0.049668051 0.050091945 0.05000801
0.04999404 0.04991154 0.049979031 0.050146945 0.050052065 0.050261021
0.050196003 0.050305028 0.050186999 0.050094001 0.050349433 0.050188087
0.050087143 0.04992681 0.049952433 0.050125036 0.050161485 0.05026054
0.050212044 0.049788363 0.050236102 0.0499468 0.049922816 0.049977884
0.050315164 0.050076552 0.050010841 0.050287504 0.050207734 0.050414417
0.050452136 0.050207548 0.050180785 0.050226089 0.0503533 0.050473437
0.050368585 0.050210483 0.050324049 0.050275568 0.050186232 0.050389126
0.049955517 0.049622316 0.049705941 0.050085161 0.049770653 0.049779009
0.049782615 0.049534302 0.049794976 0.049949411 0.049396276 0.049459435
0.049273223 0.049338084 0.049531292 0.049049605 0.049321242 0.049198292
0.049080826 0.048857141 0.049037807 0.049300633 0.048813362 0.049331944
0.049680337 0.049470369 0.049726326 0.05000839 0.049640071 0.049698748
0.049870327 0.049881548 0.050309736 0.050097976 0.050366987 0.050387897
0.050080858 0.049880702 0.050229847 0.050466407 0.050285164 0.050471984
0.050392307 0.050152931 0.050288796 0.050468639 0.050089609 0.05022084
0.050290182 0.050346032 0.050203554 0.050199199 0.050635397 0.05030207
0.050103031 0.050021134 0.050056268 0.050065275 0.050129004 0.050286222
0.050055072 0.050342217 0.050276987 0.050234962 0.050391216 0.05007606
0.049925026 0.049987037 0.049644206 0.050064016 0.050044283 0.049903046
0.049975336 0.049996 0.050020132 0.050010026 0.050209068 0.050299022
0.049779128 0.049797583 0.050053217 0.050053217 0.050120566 0.049745012
0.050072432 0.05020202 0.0498331 0.049860246 0.050023027 0.050073039
0.050179157 0.050326098 0.050236017 0.050321557 0.050083347 0.0504211
0.050246391 0.049875014 0.050222956 0.050201014 0.049875297 0.050229069
0.050230026 0.050226506 0.05014528 0.049906638 0.050276708 0.049869705
0.04992893 0.049986754 0.050507016 0.050031837 0.049810488 0.050347216
0.050360654 0.050569139 0.05053322 0.050184209 0.050214533 0.050218485
0.050470024 0.050500963 0.050467689 0.050347563 0.050303534 0.050248537
0.050349135 0.050228216 0.050021887 0.049831118 0.04960198 0.049923319
0.049782578 0.049759958 0.049676266 0.049440421 0.049602628 0.049825635
0.049395736 0.049397141 0.049172163 0.049023151 0.049481612 0.049123891
0.049016289 0.049101409 0.04889062 0.048784863 0.049076766 0.049161635
0.048566822 0.0491478 0.049624659 0.049315721 0.049758777 0.050041292
0.049573369 0.049775288 0.049855947 0.049871538 0.050323807 0.050219387
0.050365586 0.050523318 0.050113693 0.049855549 0.050197572 0.05027179
0.050220978 0.050538901 0.050354052 0.050191212 0.05054152 0.050707761
0.05031994 0.050422665 0.05053211 0.050142154 0.050144907 0.050446291
0.050661039 0.050179716 0.050046373 0.049838513 0.050087221 0.050435003
0.049881477 0.050249763 0.05009909 0.050559219 0.050174851 0.049974564
0.050450053 0.050147749 0.049904041 0.050159547 0.04985369 0.05006301
0.049924213 0.04974312 0.049989291 0.050215025 0.050040372 0.049935013
0.050111115 0.050210085 0.049719125 0.049941026 0.050089013 0.050089013
0.050042517 0.049892146 0.050052002 0.050366703 0.049768094 0.049868528
0.050071131 0.049986232 0.050185002 0.050377533 0.050291009 0.050215781
0.049999733 0.050515488 0.050180968 0.049670059 0.050186347 0.050410029
0.049957275 0.050330497 0.050242137 0.050163466 0.050176393 0.050085351
0.050211236 0.049858157 0.050058492 0.050124515 0.050461274 0.05007977
0.049849778 0.050316684 0.050484769 0.050715279 0.050515451 0.050222918
0.050336588 0.050303422 0.05052378 0.05042474 0.050479416 0.050542012
0.050308481 0.050144982 0.050381355 0.050023235 0.050095946 0.050126635
0.049565125 0.049828678 0.04991667 0.049787089 0.049667384 0.049330585
0.049398076 0.049525086 0.049402703 0.049394902 0.049084891 0.048721731
0.049232159 0.049090002 0.048833411 0.048864849 0.048672639 0.048843566
0.049038835 0.049101479 0.048645429 0.049087461 0.049460277 0.049114939
0.049617514 0.049833432 0.049676891 0.049909301 0.04979277 0.05000186
0.050303426 0.050235532 0.050350796 0.050471805 0.050171524 0.050075132
0.050218191 0.050018933 0.05018482 0.050463475 0.050408091 0.050434824
0.05081227 0.050764464 0.050526485 0.050523959 0.050601549 0.050147444
0.050140131 0.050456293 0.050518647 0.050207026 0.050087083 0.04995751
0.050187379 0.050713375 0.04966132 0.050178796 0.050105251 0.050540067
0.050138 0.049853563 0.050473999 0.050242085 0.049906194 0.050231416
0.050019041 0.050003264 0.049851015 0.049625099 0.050000414 0.050389089
0.050084021 0.049942005 0.050063118 0.050103057 0.049795032 0.049949661
0.050073326 0.050073326 0.05002201 0.049995326 0.050168373 0.050379056
0.049734998 0.049931593 0.050106179 0.04997433 0.050038278 0.050382618
0.05027803 0.0500191 0.050006356 0.050386399 0.0501398 0.049802162
0.050082065 0.050407015 0.05013055 0.050294831 0.050234482 0.050125491
0.050295245 0.050283313 0.050020032 0.049936 0.050307762 0.050334129
0.050295111 0.050204534 0.050138608 0.050237425 0.050521068 0.050734289
0.050472397 0.050337538 0.050462939 0.050435714 0.050555341 0.050363064
0.05045915 0.050690178 0.050346252 0.050081257 0.05028991 0.049862742
0.050128803 0.05042756 0.049759962 0.049809735 0.049966928 0.049811736
0.04964596 0.04919133 0.049269706 0.049195759 0.049318742 0.049378313
0.048929729 0.048631031 0.048896123 0.048755087 0.048715338 0.048578542
0.048494227 0.048922878 0.048883375 0.048998274 0.04885323 0.049138289
0.049283147 0.04894916 0.049435776 0.049533512 0.049792476 0.05003595
0.049762934 0.050210517 0.050240815 0.050177004 0.050391462 0.050324183
0.050212193 0.050324719 0.050266366 0.050013617 0.050344564 0.050332662
0.050467812 0.050758161 0.050946623 0.050651651 0.050578061 0.050494507
0.050511688 0.050428379 0.050260097 0.050331116 0.050358608 0.050394852
0.050110076 0.050232556 0.050262567 0.050733607 0.049729634 0.050046161
0.050071005 0.050351724 0.050155796 0.049957789 0.050402056 0.050280597
0.049977001 0.050080061 0.050051138 0.049992319 0.04996353 0.049594998
0.049985427 0.050378025 0.050113428 0.050095055 0.050046999 0.050059259
0.050034042 0.049827181 0.050010487 0.050010487 0.050107002 0.050109088
0.050340202 0.050179638 0.049801029 0.050017178 0.050132323 0.050020143
0.049856994 0.050269496 0.05015 0.049945034 0.050107025 0.050186291
0.050093107 0.050132249 0.050016373 0.050251007 0.050299037 0.050148547
0.050220799 0.050144389 0.050354432 0.05046542 0.049865123 0.050068054
0.050523385 0.05050125 0.05019667 0.050405566 0.050500289 0.050270732
0.050466217 0.050561816 0.050443009 0.05047331 0.050543349 0.050525684
0.050588023 0.050448224 0.050457671 0.050683718 0.050405759 0.050191864
0.050189532 0.049845487 0.05011544 0.050568927 0.050146651 0.049812544
0.049816933 0.049748175 0.049593009 0.049129982 0.049297802 0.049028073
0.049100004 0.049249638 0.048725039 0.048686206 0.048581365 0.048230026
0.048539005 0.048365626 0.048397586 0.048864152 0.048589539 0.048740424
0.048932344 0.049179789 0.049178265 0.048959021 0.04934204 0.049325317
0.049759459 0.050042823 0.049840834 0.050417721 0.050155427 0.050145999
0.050412685 0.050223842 0.050294615 0.050455485 0.050324734 0.05028379
0.050621089 0.050311953 0.050514523 0.050943948 0.050880354 0.050507024
0.050558925 0.050458979 0.050418314 0.05071874 0.050404053 0.050304554
0.050301194 0.050564181 0.050079007 0.050413534 0.05028569 0.050518211
0.050088212 0.049911097 0.05000373 0.05022765 0.050171595 0.050173413
0.050269999 0.050138738 0.05012425 0.049862027 0.050003059 0.050106287
0.050201982 0.049659055 0.04994617 0.050220069 0.050072454 0.05031101
0.049981285 0.050029501 0.050323442 0.04977316 0.049953032 0.049953032
0.050186146 0.05035517 0.050337154 0.049974766 0.049958032 0.050139043
0.050131604 0.050084118 0.049798079 0.05007343 0.049985003 0.050089024
0.050235707 0.050025444 0.05006402 0.050359473 0.049950249 0.050134085
0.050387092 0.050021175 0.050229013 0.050162137 0.05035514 0.050549056
0.049904242 0.050206989 0.050567668 0.050521005 0.05026174 0.050685927
0.050754663 0.050438538 0.050348461 0.050327435 0.050422132 0.050575279
0.050575726 0.050580479 0.050658993 0.050661627 0.050473578 0.050555654
0.05050014 0.050461914 0.05016828 0.050004542 0.050096288 0.050443221
0.050459467 0.049807996 0.049575541 0.049648497 0.049595147 0.049207006
0.049417786 0.048986569 0.048850182 0.049014118 0.04853449 0.048626035
0.048257284 0.047851469 0.048299823 0.048218984 0.048277032 0.048574347
0.048260842 0.048361745 0.048799168 0.049158227 0.049102608 0.049172092