# vtk DataFile Version 3.0
axinsert(project(permute(???,2,0,1),0,L2),2)
ASCII
DATASET STRUCTURED_POINTS
DIMENSIONS 128 256 1
ORIGIN 0 0 0
SPACING 1 1 1
POINT_DATA 32768
SCALARS nrrd92288 float
LOOKUP_TABLE default
0.05006 0.050020803 0.049977031 0.049944106 0.04995 0.049987167 0.050010007
0.050000414 0.049995016 0.049960267 0.050039098 0.050039172 0.05002502
0.049978029 0.049993038 0.049974315 0.050023369 0.050029334 0.049934022
0.049976371 0.050007291 0.050060004 0.049981121 0.049980018 0.049975004
0.049963053 0.050046332 0.050048076 0.050016049 0.049963061 0.050018054
0.05003608 0.050005034 0.050011016 0.049978051 0.049948025 0.049980007
0.04999705 0.049983103 0.050014526 0.050049167 0.05005303 0.049984999
0.049998119 0.049982999 0.049943004 0.050029349 0.050051019 0.049966149
0.050027516 0.050000068 0.049973041 0.049976133 0.049998347 0.050036259
0.049962003 0.049995005 0.050005998 0.049981225 0.050002325 0.049972065
0.050000153 0.050004061 0.04997405 0.050019141 0.049974009 0.049934018
0.049982309 0.049966 0.050041359 0.05010901 0.050081339 0.049992222
0.049936078 0.0499871 0.050016046 0.050035998 0.050006002 0.050001141
0.050008051 0.050010804 0.049945027 0.049963031 0.049988002 0.050040185
0.050027307 0.050007001 0.050037567 0.049985066 0.049947262 0.049977016
0.050002031 0.049985461 0.049951132 0.050037224 0.049956001 0.050049536
0.049982 0.050045419 0.050091904 0.049944039 0.049972054 0.050034005
0.050048843 0.050025262 0.049974807 0.050005049 0.050023925 0.049968071
0.049949866 0.049963143 0.049987152 0.049982365 0.050033078 0.050011139
0.050045367 0.050076496 0.049930006 0.049973153 0.050035018 0.049988125
0.050020002 0.049983118 0.04997601 0.050001007 0.049966067 0.050020255
0.050020255 0.050043333 0.049966369 0.049988531 0.049981482 0.049872003
0.049964584 0.050044 0.049983144 0.050012026 0.049930416 0.049960051
0.050114885 0.05013413 0.049993079 0.049999241 0.049977005 0.049978223
0.050074168 0.049860228 0.049842011 0.050128993 0.050069191 0.050062582
0.049935296 0.049904287 0.049930062 0.04998453 0.050118621 0.050036479
0.049864277 0.049978063 0.050098538 0.050023653 0.050033331 0.049946032
0.049998883 0.050053146 0.050038442 0.049934026 0.049851395 0.050053041
0.050123725 0.050058361 0.049981032 0.050007027 0.049859036 0.050003424
0.050130155 0.04990131 0.049968593 0.050036944 0.050039187 0.050037999
0.050011236 0.050035 0.050004303 0.049973078 0.050023306 0.049902182
0.049975876 0.050035998 0.049906012 0.049987242 0.050034098 0.050124004
0.05004831 0.049905621 0.050005075 0.049966127 0.050010305 0.050200608
0.050038014 0.049889006 0.049872044 0.049945008 0.049994014 0.0500631
0.05015612 0.049969099 0.049964003 0.050115079 0.049843296 0.049890101
0.05007622 0.050091248 0.050013531 0.050088253 0.050084405 0.049915157
0.049994729 0.049884785 0.049958561 0.049965262 0.049873471 0.050070137
0.04992174 0.050040022 0.049986657 0.050037052 0.050240505 0.050040063
0.049981434 0.049978711 0.050112594 0.050037321 0.050007802 0.049991056
0.049946234 0.049948085 0.049916551 0.049964096 0.04992187 0.049877189
0.050117008 0.050085727 0.05022287 0.050035316 0.049865019 0.049932402
0.04988303 0.049940035 0.050005291 0.049991116 0.050031316 0.050082326
0.049887039 0.050040029 0.050040029 0.049899567 0.049957592 0.050011132
0.050052095 0.049938127 0.049964599 0.050045166 0.049933944 0.050023433
0.050009888 0.049872071 0.050058406 0.050151404 0.050038796 0.050032265
0.049951766 0.049896602 0.050058559 0.049940877 0.049797688 0.050184421
0.050013568 0.050091073 0.050007846 0.049877949 0.050006803 0.049870852
0.050067481 0.050038211 0.049878556 0.04993004 0.050036926 0.050030533
0.049975839 0.049935184 0.05010695 0.050091207 0.050059654 0.049945038
0.049735945 0.050007936 0.050105039 0.050146941 0.049955111 0.049975071
0.049950439 0.049986098 0.050069023 0.049935006 0.049910843 0.050033025
0.050225098 0.050086856 0.050085627 0.050000045 0.050033316 0.05001612
0.05008778 0.04986003 0.049868353 0.050166115 0.049919005 0.050016027
0.050202299 0.05012165 0.050140183 0.050007042 0.050046626 0.050013591
0.049966883 0.050036695 0.04987517 0.049885351 0.049884766 0.049967125
0.0499212 0.050003108 0.050195612 0.04994107 0.050003223 0.05015976
0.049950369 0.050034799 0.050051328 0.050046396 0.050040416 0.050064042
0.04999765 0.049916852 0.050087132 0.049914058 0.050033528 0.050012935
0.049889576 0.049942348 0.049930863 0.049996912 0.050054092 0.050040744
0.050116993 0.050188173 0.050054148 0.049977563 0.050019849 0.050022796
0.05000053 0.0498439 0.049906656 0.050046194 0.049982395 0.049969878
0.049875706 0.049847256 0.050127909 0.050170887 0.050199814 0.049819276
0.049966387 0.049907546 0.049748179 0.049868118 0.049963005 0.050022122
0.05009906 0.050071035 0.049934998 0.049982283 0.049982283 0.049831301
0.050055102 0.049943 0.049965031 0.049988121 0.04992491 0.050008643
0.049906939 0.049996808 0.050055292 0.049882818 0.05000044 0.050079275
0.05006567 0.049964041 0.049791515 0.049964566 0.050056741 0.050008584
0.049840197 0.050106678 0.050011467 0.049987059 0.050069634 0.049918272
0.05007441 0.049893338 0.050036553 0.050052501 0.049917974 0.049919195
0.050038528 0.050029285 0.049883168 0.049918938 0.050069522 0.050089091
0.050041813 0.049934551 0.049792398 0.050005447 0.050140157 0.050146304
0.049910728 0.049961798 0.050057258 0.050078891 0.049996965 0.049984809
0.049937334 0.049996611 0.050286781 0.049986266 0.050233256 0.050053585
0.049982052 0.050030015 0.0502108 0.049956284 0.049855161 0.05022002
0.050005004 0.050088007 0.050336171 0.050115403 0.050085206 0.050054245
0.050065272 0.050028402 0.050022304 0.049949989 0.049812227 0.050006356
0.049851179 0.050010577 0.04998374 0.049994256 0.050120667 0.049903356
0.050122242 0.050187517 0.05009513 0.050261375 0.049933512 0.049978342
0.050118763 0.049976293 0.049938112 0.049980253 0.05006928 0.049973801
0.050158784 0.050064951 0.049891226 0.049879923 0.049928203 0.049939934
0.050170328 0.050013602 0.050060079 0.050131936 0.050083708 0.050078232
0.049860399 0.050065808 0.049886134 0.049783483 0.049926773 0.050076
0.049983893 0.049922477 0.049832221 0.049914036 0.050077889 0.05020811
0.050109494 0.049720488 0.0500037 0.049802449 0.049781576 0.049785506
0.050000105 0.050066605 0.050006304 0.049991008 0.050014026 0.049880043
0.049880043 0.04980503 0.050121002 0.049821999 0.049886495 0.049986057
0.049797982 0.049914863 0.049903139 0.049996875 0.050003003 0.049866933
0.049976036 0.050041996 0.05008518 0.049874991 0.049697813 0.05008629
0.050010126 0.049966738 0.049919132 0.050011046 0.050027877 0.049839146
0.050028522 0.049954057 0.050077163 0.049965598 0.050036877 0.050096102
0.049911257 0.049894162 0.050140794 0.0500382 0.049849626 0.049873877
0.04998545 0.050131258 0.050038986 0.049894024 0.04982781 0.04994525
0.050210174 0.05015279 0.049883537 0.050000161 0.05018511 0.050192676
0.04998792 0.050016511 0.050026078 0.049936067 0.05028373 0.049897343
0.050345819 0.050105877 0.049967814 0.050023802 0.050254282 0.050161276
0.04999901 0.050252005 0.050003 0.050151061 0.050361104 0.050167099
0.050048143 0.050060999 0.050062064 0.050029039 0.050096046 0.049976364
0.049780637 0.050171241 0.049929626 0.050050043 0.050118197 0.050052278
0.050046142 0.049947809 0.050208203 0.050248004 0.050105058 0.050351672
0.049959846 0.049947787 0.050036695 0.049948528 0.050000794 0.05007232
0.049966637 0.049945559 0.050207783 0.050085951 0.049882989 0.04996391
0.049932774 0.049903795 0.050222427 0.049958713 0.050086781 0.04999755
0.050131626 0.050052542 0.049773026 0.050049864 0.049831122 0.049885519
0.049898546 0.050012708 0.049894895 0.049918383 0.049721692 0.049939912
0.050012343 0.050221372 0.050087411 0.049725793 0.049989477 0.049694095
0.049798619 0.049702648 0.050013233 0.050073229 0.049889337 0.049924001
0.04999502 0.049861085 0.049861085 0.049793076 0.050093032 0.049728002
0.049859006 0.049940079 0.049665432 0.049781416 0.049889941 0.050026231
0.049903437 0.049804285 0.049989663 0.050058827 0.050072689 0.049849443
0.049764927 0.050128248 0.049893826 0.049780816 0.049964331 0.049996343
0.050039474 0.049772844 0.04992168 0.049960986 0.050012067 0.049997505
0.050042532 0.050103258 0.049914818 0.049879353 0.050264273 0.050027162
0.049845062 0.049839847 0.049870536 0.050206471 0.050080407 0.049915344
0.049792569 0.049850903 0.050237175 0.050187282 0.049884718 0.050054889
0.050308738 0.050236903 0.050017394 0.050139323 0.050119612 0.049902033
0.050272029 0.049950033 0.050313681 0.050145164 0.050012399 0.050064027
0.050154012 0.050277568 0.050188068 0.050259195 0.049941014 0.05019635
0.050277155 0.050193433 0.050113045 0.050076585 0.050081011 0.050037045
0.050143 0.050124008 0.049784694 0.0502671 0.050119918 0.050093811
0.050215732 0.050111558 0.049966503 0.050023068 0.050186884 0.050256781
0.050063971 0.050321583 0.050157983 0.049920093 0.049908977 0.049984489
0.050151646 0.050157283 0.049831886 0.049812146 0.050182402 0.050133366
0.049986072 0.050014395 0.049882729 0.049948093 0.050218843 0.049956232
0.050039835 0.049934823 0.050150476 0.049901973 0.04978418 0.049897205
0.049945209 0.049971599 0.049890876 0.049967777 0.049797721 0.04992912
0.049514003 0.049877621 0.049999259 0.050221302 0.050147321 0.049740653
0.049919322 0.049640026 0.049748287 0.049647182 0.049934294 0.050071049
0.04987637 0.049842007 0.049911998 0.049932223 0.049932223 0.049795538
0.049999028 0.04975006 0.049801514 0.049836047 0.049642026 0.04972
0.049898084 0.049998216 0.049764991 0.049774047 0.050028674 0.05013302
0.049980767 0.049863178 0.049896706 0.05009722 0.049753599 0.049603
0.049895402 0.050096318 0.049981356 0.04983804 0.04989079 0.049959272
0.049928941 0.050022546 0.050021529 0.050024979 0.049967129 0.049983248
0.050318174 0.04993327 0.049862493 0.049850028 0.049725343 0.050258338
0.05012536 0.050027054 0.049767263 0.049825005 0.050232165 0.050212
0.049878139 0.050109014 0.050362118 0.050196197 0.05003142 0.050353229
0.050189465 0.049944647 0.050234154 0.050110627 0.050153248 0.050152261
0.05006811 0.050145339 0.049971409 0.050196711 0.050316535 0.050176565
0.049968075 0.050214104 0.050052129 0.050151516 0.050236005 0.050093494
0.050181013 0.050029531 0.050152034 0.050279338 0.049819015 0.050233033
0.050231118 0.050177 0.050262004 0.05015203 0.049859013 0.050023127
0.050132029 0.050173171 0.050073806 0.05020012 0.050382871 0.049862165
0.04999936 0.050086293 0.050322026 0.050220702 0.049729217 0.049704161
0.050091393 0.050207216 0.050165072 0.04993153 0.049830202 0.050067414
0.050223399 0.050006397 0.049837362 0.050001003 0.050068766 0.049805161
0.049803399 0.049743999 0.05016369 0.049979504 0.049890589 0.050001383
0.049777098 0.049835883 0.049379002 0.049807943 0.050064098 0.050250836
0.050202999 0.049711708 0.049741 0.049632169 0.049670145 0.049646031
0.049864728 0.050050367 0.049962685 0.04972706 0.04987102 0.050009105
0.050009105 0.049815666 0.049925115 0.049908452 0.04970311 0.049677081
0.049705077 0.049781382 0.04998235 0.049875669 0.049615096 0.049770501
0.050046366 0.050233595 0.049862023 0.049873136 0.050019 0.050028905
0.049698129 0.049551208 0.049750198 0.050201133 0.04986709 0.049991012
0.050050441 0.049966455 0.049901485 0.05010429 0.049938023 0.049891815
0.050039023 0.050215553 0.050254036 0.049769297 0.049931489 0.04987891
0.049700096 0.050230008 0.050148394 0.050157949 0.049808245 0.049916741
0.050237946 0.050231416 0.049867306 0.050115004 0.050346386 0.050053854
0.050116174 0.050413232 0.050195009 0.050053909 0.050231762 0.050240405
0.049975164 0.050067954 0.050069008 0.050278012 0.049780615 0.050035
0.050308786 0.050039299 0.050124496 0.050184097 0.049730033 0.050081942
0.050281018 0.050117273 0.050309036 0.049993858 0.050134014 0.050273977
0.049863707 0.05014094 0.050149981 0.050239034 0.05025667 0.050157554
0.049761448 0.049970292 0.050140943 0.0500383 0.050105162 0.050025854
0.050482627 0.049877454 0.05024964 0.050320271 0.05039442 0.050270252
0.049709465 0.049806178 0.050016053 0.050240438 0.050238054 0.049806703
0.049874481 0.050175101 0.050209127 0.050076339 0.049609013 0.050107811
0.049972054 0.049836285 0.049841311 0.049713887 0.050306488 0.049977243
0.049835268 0.050086316 0.049841296 0.049605004 0.0495179 0.04977382
0.050185058 0.050284997 0.050181266 0.04967453 0.049512025 0.049683001
0.049639437 0.049723037 0.049869303 0.050004065 0.050039597 0.049582019
0.049913261 0.049988002 0.049988002 0.049902059 0.049964953 0.050100517
0.049670409 0.04947973 0.049730472 0.049839679 0.050096411 0.049738437
0.04953602 0.049723927 0.05001501 0.050298274 0.049843051 0.049895663
0.050098427 0.049977753 0.04979457 0.049591217 0.04964475 0.050159771
0.049812712 0.050147749 0.050304525 0.049987223 0.050000362 0.050167263
0.049800113 0.0497845 0.050050646 0.050408307 0.050095964 0.049685627
0.050008375 0.049945474 0.049875561 0.05014924 0.050192006 0.050221626
0.049882136 0.050056871 0.050200392 0.050273672 0.049894046 0.050074529
0.050251722 0.049874321 0.050294369 0.050212678 0.050053332 0.050211266
0.05026114 0.050245076 0.049901932 0.049960773 0.049990602 0.050460462
0.049677342 0.049910072 0.050196603 0.049915012 0.050283998 0.050044358
0.049518034 0.050008006 0.05014313 0.050172221 0.050315998 0.049959462
0.050086003 0.050104115 0.049915824 0.050086096 0.049954377 0.050141133
0.050195839 0.050117645 0.049720298 0.049925961 0.05021308 0.049918026
0.050140299 0.049884856 0.050451726 0.049993373 0.050425258 0.050617758
0.050360449 0.050278984 0.049800847 0.050085627 0.050046194 0.050177019
0.050130215 0.049779259 0.049995288 0.050183147 0.050126038 0.050115425
0.049566161 0.050135117 0.049992859 0.049921356 0.04996432 0.049811658
0.050267261 0.049981564 0.049793199 0.050078873 0.049932029 0.049365733
0.04990758 0.049743269 0.050257429 0.050296433 0.05006678 0.049720027
0.049413018 0.04982603 0.049685266 0.049858209 0.049894862 0.049937256
0.050032068 0.049445014 0.049959924 0.049827028 0.049827028 0.050088372
0.050111964 0.050169051 0.049740154 0.049318571 0.049691036 0.049760345
0.050114136 0.049692042 0.04957021 0.049662266 0.049941212 0.050305001
0.049982153 0.049975831 0.050085194 0.05000221 0.049950983 0.049679395
0.049602702 0.05002619 0.049868397 0.050229393 0.050439022 0.050025798
0.050227836 0.050097045 0.049696468 0.049758412 0.049952473 0.050375804
0.0499705 0.049812861 0.050038766 0.050087288 0.05013822 0.050119195
0.050288863 0.050175279 0.049905136 0.050139632 0.050076377 0.050294671
0.050014138 0.050033685 0.05007581 0.049803741 0.050428316 0.049943052
0.049828712 0.050337575 0.050243583 0.050127413 0.050018646 0.049975239
0.049897242 0.050592966 0.049729884 0.049869407 0.050025553 0.049789838
0.05030011 0.049780156 0.049565211 0.049907174 0.049918059 0.050205
0.050098386 0.049956471 0.049986128 0.049901586 0.049986079 0.050026227
0.049776968 0.049903836 0.050115272 0.050060581 0.049750887 0.049884655
0.050313901 0.049856078 0.050191563 0.049900912 0.050369497 0.050169032
0.050404638 0.050780684 0.050337043 0.050223798 0.050009467 0.050329003
0.050134309 0.050073382 0.049946204 0.049905512 0.050056536 0.050104763
0.04998818 0.050091106 0.049724679 0.05010929 0.050100535 0.050027397
0.05012475 0.050016191 0.050059002 0.049980275 0.049875014 0.049920086
0.04998181 0.049287841 0.050265513 0.049741238 0.050150409 0.05031107
0.049905892 0.049861878 0.049554035 0.050045151 0.049764361 0.049964551
0.049897473 0.049832664 0.04993188 0.049405999 0.049948793 0.049623135
0.049623135 0.050288875 0.050249826 0.050033074 0.049801089 0.049339008
0.049698476 0.049604043 0.049998306 0.049727481 0.049691811 0.049666002
0.049912751 0.050234016 0.050164603 0.050078433 0.049992945 0.050037015
0.05006152 0.049794368 0.049638934 0.049955491 0.049962208 0.05020896
0.050359249 0.050087664 0.05046916 0.049920909 0.04972868 0.049768645
0.049819857 0.050135281 0.049989007 0.050093606 0.050039131 0.050235655
0.050324727 0.050206978 0.050414812 0.050042115 0.04986804 0.050119627
0.049949076 0.050219949 0.050218642 0.050020017 0.0499238 0.049890805
0.050378546 0.049830046 0.049749322 0.050353043 0.050120391 0.050008819
0.050264359 0.050133035 0.049847957 0.050538015 0.049878731 0.049925085
0.049803101 0.049642302 0.050127774 0.049517032 0.049754687 0.049780838
0.049805071 0.050040264 0.049749415 0.049999945 0.049832206 0.049751338
0.050059978 0.04984463 0.049645614 0.049731687 0.050067693 0.050018448
0.049848314 0.049833544 0.050407358 0.049854446 0.050197177 0.050110765
0.050324123 0.050381523 0.05026374 0.050700691 0.050329484 0.050217155
0.050266616 0.050381258 0.050132722 0.050020386 0.049846917 0.050095875
0.04998054 0.050020285 0.049852636 0.050009854 0.049956568 0.050122544
0.050223205 0.050139125 0.050231971 0.05022452 0.049850315 0.049978126
0.050058261 0.04973229 0.049982514 0.049442183 0.050317038 0.049803607
0.049941197 0.050272547 0.049805298 0.049991116 0.049826015 0.050242044
0.049805403 0.049986009 0.0499053 0.049743026 0.049749065 0.049575668
0.049864341 0.049520615 0.049520615 0.050354097 0.050282355 0.049765181
0.049767688 0.04961073 0.049807426 0.049525008 0.049860306 0.049766526
0.049837768 0.049764015 0.049999319 0.050105665 0.050184917 0.050138034
0.049934953 0.049948055 0.050095584 0.049923044 0.049777221 0.049985632
0.050014671 0.050140563 0.050158601 0.050161161 0.050558686 0.049782068
0.049896751 0.049724348 0.049787391 0.049930431 0.050124712 0.050327081
0.050051611 0.050277323 0.050377864 0.050365362 0.05049549 0.04991591
0.049859926 0.050050717 0.04992288 0.050106145 0.050391521 0.050020687
0.049937513 0.050033748 0.050129618 0.049900074 0.049903531 0.050304115
0.049930044 0.050020982 0.05043425 0.050288174 0.049839351 0.050268777
0.049971186 0.049995352 0.04959891 0.04950048 0.049850058 0.049421061
0.049817953 0.049701005 0.049794246 0.049640093 0.049499922 0.050063148
0.049683545 0.049646493 0.050075281 0.04955807 0.049534027 0.049769923
0.05003966 0.049985964 0.049990691 0.049833331 0.050417274 0.049899396
0.050104659 0.050369404 0.050388098 0.050571874 0.050167989 0.05045386
0.050266791 0.050362479 0.050466575 0.050271098 0.049998447 0.05003034
0.049878757 0.050180037 0.049893953 0.049991127 0.049755376 0.049933203
0.050176501 0.05020386 0.050352279 0.050237861 0.050217126 0.050297104
0.049832117 0.049966969 0.050196193 0.049677424 0.05001276 0.049746003
0.050118003 0.049861953 0.049837198 0.050081052 0.049796008 0.050028067
0.050026026 0.050297614 0.049789 0.049956065 0.049950048 0.049765188
0.049574032 0.049887214 0.049739335 0.049572043 0.049572043 0.050230421
0.050179441 0.049586218 0.049669102 0.05000177 0.049914613 0.049594108
0.049804654 0.049787026 0.049943548 0.049919315 0.05012387 0.050016679
0.049973633 0.050172001 0.050004113 0.0497557 0.050027527 0.050049067
0.049943335 0.050031483 0.05003741 0.050109494 0.04996312 0.050208393
0.050439127 0.049769118 0.050071526 0.049655091 0.049894843 0.049955864
0.050247643 0.050364405 0.050099492 0.050225265 0.050349079 0.050476499
0.050483409 0.049899947 0.049960382 0.050025657 0.050003484 0.050094135
0.050434969 0.050019328 0.050138578 0.05009852 0.049828164 0.049984809
0.050158627 0.050250929 0.049805861 0.050132096 0.050369129 0.050299503
0.049853951 0.049918506 0.049916424 0.049962219 0.049510155 0.049409889
0.049568001 0.049517106 0.04964944 0.049645741 0.049699005 0.049221464
0.049468011 0.050038386 0.049613714 0.04958114 0.049986951 0.049349438
0.049488392 0.049932767 0.049974736 0.049948454 0.050122537 0.049949963
0.050297476 0.049999099 0.049997203 0.050488003 0.050496656 0.050649632
0.050196521 0.050234258 0.050190467 0.050568432 0.050540723 0.050141703
0.049876478 0.050042756 0.049954638 0.050101355 0.049983054 0.050033133
0.049697056 0.049958665 0.050341636 0.050304741 0.050463747 0.050287273
0.050052736 0.050234862 0.050004475 0.049943391 0.050175618 0.049819048
0.050134018 0.05004802 0.049923956 0.049890228 0.049825002 0.049785141
0.049810141 0.05000351 0.050069228 0.050188236 0.049749069 0.049928606
0.050001081 0.049903065 0.049583472 0.050067857 0.049636502 0.049697045
0.049697045 0.050052781 0.049940355 0.049640428 0.049625248 0.050219178
0.049932014 0.049731262 0.049866244 0.049798027 0.05001631 0.050037511
0.050189927 0.050030146 0.049735054 0.05022528 0.0501532 0.049658965
0.049877033 0.050097521 0.050038587 0.050030481 0.050091431 0.050135985
0.04981852 0.050200291 0.050219234 0.04984 0.050121598 0.049712002
0.050046284 0.050117273 0.05027641 0.050255314 0.050189894 0.050214492
0.050310183 0.050450996 0.050412145 0.050023392 0.05016451 0.050104201
0.05011896 0.050215606 0.05038777 0.050038476 0.05038584 0.050072506
0.049638748 0.049977105 0.050322793 0.050160483 0.049806327 0.050174806
0.050103374 0.050184365 0.049903512 0.049646806 0.04976863 0.049777698
0.049523272 0.049407471 0.049311023 0.049642015 0.049415004 0.049505048
0.049450938 0.048999172 0.049531087 0.049794719 0.04960141 0.049593203
0.049831491 0.049375098 0.04960094 0.050012067 0.049872633 0.049925141
0.050162934 0.050149493 0.050144341 0.050165989 0.050026312 0.050416522
0.050465833 0.050578803 0.050334062 0.050194032 0.050212752 0.050658777
0.050476857 0.050101586 0.04993115 0.050022744 0.05000696 0.050007187
0.050227121 0.050123472 0.049713805 0.050138999 0.050422002 0.050325055
0.050467085 0.050232109 0.049852796 0.050166201 0.05019027 0.049925145
0.050078154 0.050043531 0.050278049 0.050236106 0.049846146 0.049913209
0.049791154 0.049550381 0.049836081 0.049982466 0.050018284 0.050014161
0.049723018 0.049916856 0.050009005 0.050063077 0.049816955 0.050001513
0.04956622 0.049805257 0.049805257 0.049977016 0.049677748 0.049823899
0.049715001 0.050121002 0.049880192 0.049814302 0.049987409 0.049831007
0.050092034 0.050075103 0.050204001 0.050075144 0.049739003 0.050267681
0.050218999 0.04977021 0.049776964 0.050017297 0.050051026 0.050033789
0.050165083 0.0501628 0.049736071 0.050176173 0.050027043 0.049891241
0.050049096 0.049966004 0.050107349 0.050160024 0.050268766 0.050176132
0.050309248 0.050320607 0.050276969 0.050329339 0.050336193 0.050227772
0.050389823 0.050268807 0.050215807 0.050353609 0.050358348 0.050131425
0.050517511 0.050036963 0.049617555 0.049908597 0.050316185 0.05000864
0.049855419 0.050058689 0.049812406 0.050032157 0.049978409 0.04950434
0.049617179 0.049523756 0.049513023 0.0494873 0.049130317 0.049592063
0.049279138 0.049301755 0.049138576 0.048987273 0.049498741 0.049337484
0.049537618 0.049676184 0.049680542 0.049585797 0.049857881 0.049915999
0.049801219 0.049940996 0.050093304 0.05032412 0.050110564 0.050352063
0.050231658 0.050275579 0.050234579 0.050433058 0.050491493 0.050288919
0.050356887 0.050588652 0.050326135 0.050169148 0.050176706 0.050026391
0.050084058 0.050072722 0.05039423 0.0501942 0.049887162 0.050405435
0.050393905 0.050214551 0.050282028 0.050099548 0.049816389 0.050130021
0.050265014 0.049928013 0.050093547 0.050193161 0.050291047 0.050296064
0.049876045 0.049895 0.049782012 0.049472027 0.049891081 0.049973067
0.0499181 0.049893614 0.049754009 0.049903266 0.049964074 0.050132412
0.050067361 0.049822073 0.049569149 0.049878005 0.049878005 0.049985774
0.049555119 0.049941059 0.049885999 0.049879007 0.049797781 0.049851142
0.050023142 0.049937267 0.050153136 0.050088048 0.050211012 0.05005414
0.050006144 0.050229665 0.050076474 0.049975023 0.049872126 0.04986582
0.050076094 0.050080366 0.050197016 0.050125055 0.049749002 0.050190665
0.049896039 0.049886331 0.049964074 0.050285123 0.050067101 0.050002061
0.050305378 0.05023133 0.050448399 0.050470449 0.050244465 0.050243314
0.050285567 0.050419189 0.050545145 0.050441787 0.050312646 0.050411761
0.0503718 0.050299838 0.050489414 0.050059289 0.049736276 0.049817625
0.050189756 0.049890719 0.049874008 0.049883693 0.049624074 0.049872082
0.050000258 0.049459249 0.04950548 0.049326248 0.049351085 0.049558256
0.04909534 0.049340244 0.049219318 0.049105063 0.048902497 0.049061187
0.049356945 0.04887104 0.049377635 0.049734138 0.049550068 0.049786821
0.05009234 0.049757849 0.049807075 0.049971007 0.050003134 0.050416503
0.050214786 0.050466355 0.050486397 0.050208878 0.049997743 0.050325178
0.050517123 0.050348461 0.0505227 0.050475176 0.050211471 0.05034063
0.050495185 0.050140817 0.050244939 0.050302044 0.050328188 0.050190195
0.050184045 0.050600514 0.050271798 0.050066222 0.049994096 0.049996104
0.050036017 0.050020438 0.050235819 0.049972124 0.050255358 0.050207984
0.050104726 0.050317001 0.049956266 0.04984108 0.049874339 0.049565729
0.049934197 0.049920652 0.049766004 0.049858119 0.049881022 0.049901277
0.049875103 0.050081018 0.050151002 0.049658053 0.049674433 0.049928188
0.049928188 0.049967475 0.049606003 0.049937543 0.05007302 0.049699027
0.049732406 0.049892008 0.049943145 0.050048415 0.050198998 0.050126188
0.050180107 0.049975991 0.050284024 0.050144017 0.049774401 0.050103869
0.050106127 0.049793005 0.050161075 0.050136089 0.050155003 0.05008002
0.04985502 0.050208353 0.049818005 0.049903065 0.04997034 0.050463479
0.050029855 0.049831703 0.050347183 0.050372742 0.050606709 0.050552968
0.050233535 0.050273437 0.050295152 0.050542846 0.050579421 0.050550863
0.05046235 0.050411548 0.050354023 0.050452251 0.050345242 0.050141357
0.049962703 0.049724128 0.050050288 0.049916968 0.04988002 0.049786441
0.049520612 0.049685761 0.049872462 0.049468897 0.049451154 0.049214289
0.049044944 0.049493399 0.04914277 0.049052361 0.049103491 0.048900951
0.0488263 0.049105171 0.049227081 0.048645481 0.049216166 0.049681846
0.049397781 0.049824569 0.050129894 0.049710095 0.049897697 0.049966197
0.050009813 0.050445914 0.050336819 0.050490726 0.050627347 0.050239738
0.049984347 0.050299224 0.050344139 0.050309163 0.0505917 0.050438911
0.050260041 0.050597664 0.050733339 0.050356444 0.050432377 0.050527103
0.050167065 0.050137017 0.050410025 0.050618295 0.050159007 0.050010022
0.049821999 0.050017089 0.050369292 0.049807951 0.050152499 0.050033856
0.050416376 0.050113898 0.049865995 0.050347045 0.050040718 0.049800418
0.050023708 0.049753204 0.049918126 0.049806535 0.049601004 0.049863074
0.050078999 0.049919534 0.04979207 0.049991213 0.050072033 0.049589042
0.049785007 0.049947012 0.049947012 0.049897593 0.049732119 0.049924023
0.050216574 0.049607009 0.049728282 0.049927015 0.049855653 0.050031103
0.050247137 0.05016109 0.050052155 0.049902566 0.050359026 0.050074883
0.049583107 0.050084438 0.050279494 0.049882106 0.050206006 0.050178964
0.050060004 0.050139643 0.050003164 0.05013603 0.049808126 0.050032999
0.050100643 0.050424092 0.050070025 0.049867578 0.050315261 0.05049656
0.050738882 0.050549503 0.050281793 0.050392181 0.050385132 0.050605375
0.050518509 0.050582092 0.050656661 0.050420731 0.050277732 0.050492488
0.050160877 0.050234586 0.050271045 0.049726151 0.049975235 0.050042816
0.049913317 0.04976977 0.049414892 0.04949633 0.049586378 0.049472205
0.049444132 0.049113128 0.048767924 0.049248263 0.049069017 0.048856471
0.048865929 0.04868561 0.048876733 0.049062084 0.049148075 0.048713449
0.049163271 0.049532313 0.049209364 0.049703032 0.049943805 0.049803805
0.050048314 0.049930159 0.050146591 0.050437912 0.0503732 0.050499316
0.050599638 0.050299596 0.050192259 0.050333265 0.050143275 0.050304253
0.050530579 0.050482225 0.050502352 0.050858632 0.050795864 0.050542671
0.050530463 0.050594207 0.050184608 0.050141122 0.050426126 0.050483
0.050188325 0.050037187 0.049894672 0.050147545 0.050588008 0.049632285
0.050055072 0.050035089 0.050410211 0.050035272 0.049761511 0.050348271
0.050124008 0.049798653 0.050073598 0.049885213 0.049866032 0.049739033
0.049481001 0.049864132 0.050225005 0.049947001 0.049806006 0.049928252
0.049962051 0.049665008 0.049781617 0.049918234 0.049918234 0.049874056
0.049837228 0.05002426 0.050198372 0.049579021 0.04978184 0.049947049
0.049834218 0.049878053 0.050233204 0.050125048 0.04988401 0.049884912
0.050245039 0.050011095 0.04969902 0.049980607 0.050275519 0.050048556
0.050150055 0.050177094 0.050009001 0.050242145 0.050184146 0.049962308
0.049881451 0.050263006 0.050298449 0.050271317 0.050193001 0.050134394
0.050258137 0.050533708 0.050743099 0.050512839 0.050395653 0.050521273
0.05051095 0.050640594 0.050481349 0.050580774 0.050801221 0.050465576
0.050245397 0.05042614 0.050026461 0.050292633 0.05057532 0.04994246
0.049964689 0.050094426 0.049934469 0.049756292 0.049304087 0.049388602
0.04928951 0.049380805 0.049412314 0.048957277 0.048676893 0.048915021
0.048726019 0.048707318 0.048588511 0.048509035 0.048935145 0.048889752
0.049021229 0.048895527 0.049207602 0.04937553 0.049071152 0.049545199
0.04967127 0.049903285 0.050180711 0.049930099 0.050364211 0.050396826
0.050344002 0.050542243 0.050484024 0.05036075 0.050440952 0.050396092
0.050156228 0.050465602 0.050431132 0.050542641 0.050812889 0.050990298
0.050697401 0.050600421 0.050516076 0.050514553 0.050430547 0.05025015
0.050321866 0.050328001 0.050354533 0.05004584 0.050135456 0.050223496
0.050608236 0.0496828 0.049936041 0.049964268 0.050257079 0.050028093
0.049843136 0.050277513 0.050132286 0.049866103 0.049927369 0.049905419
0.049863502 0.049837135 0.04944608 0.049832124 0.050209016 0.049952842
0.049951002 0.049882025 0.049897198 0.049893029 0.049673013 0.049850341
0.049850341 0.049938034 0.049962025 0.050158929 0.05000126 0.049647078
0.049860373 0.049962126 0.049860276 0.049703449 0.050104138 0.049983129
0.04983427 0.049956053 0.050059017 0.049947258 0.049996 0.049880002
0.050140303 0.050183605 0.050029002 0.050133213 0.050033018 0.050269809
0.050372001 0.049815264 0.050004199 0.050457098 0.050448116 0.05018051
0.050402191 0.050480958 0.050295364 0.050476797 0.050580256 0.05048338
0.050526991 0.050608579 0.050607964 0.05068288 0.05057548 0.050586063
0.050806224 0.050549813 0.050368559 0.05034763 0.050032519 0.050306439
0.050723009 0.050315522 0.049971361 0.049972009 0.04989196 0.049733944
0.049272601 0.049427934 0.049129713 0.049176257 0.049282081 0.048756924
0.048692394 0.048572022 0.048225056 0.048516002 0.048367556 0.048390761
0.048850846 0.048593398 0.048750818 0.0489618 0.049249455 0.049278352
0.049106646 0.04947456 0.049484838 0.049888838 0.050192628 0.05002737