# vtk DataFile Version 3.0
axinsert(project(permute(???,2,0,1),0,L2),2)
ASCII
DATASET STRUCTURED_POINTS
DIMENSIONS 128 256 1
ORIGIN 0 0 0
SPACING 1 1 1
POINT_DATA 32768
SCALARS nrrd92288 float
LOOKUP_TABLE default
0.050009012 0.050029002 0.05001916 0.050005026 0.04994211 0.049957316
0.050012 0.050033282 0.050025094 0.050009031 0.050003033 0.04999302
0.05004802 0.049995359 0.049991008 0.049987148 0.049923003 0.050050408
0.049978234 0.049979258 0.050024003 0.050003048 0.049998019 0.049991008
0.049960013 0.049988415 0.050006077 0.049978264 0.049985074 0.049999561
0.050014056 0.050037418 0.050040148 0.049983066 0.050026275 0.049972098
0.049978524 0.049989033 0.049988512 0.050016217 0.049948011 0.04999382
0.05004802 0.050037421 0.050033092 0.049991053 0.049979001 0.050001223
0.050029006 0.050046042 0.050011136 0.049999028 0.050007258 0.049988009
0.049986191 0.049976058 0.049965046 0.049997069 0.050007053 0.049989015
0.050050002 0.049973335 0.049935114 0.05003605 0.050017089 0.049996059
0.049974103 0.050007358 0.050015207 0.049997009 0.04999603 0.049978111
0.050016269 0.050038129 0.050001148 0.049985006 0.049967103 0.05001203
0.050008148 0.049980242 0.050034273 0.049987022 0.049959999 0.050003093
0.050022375 0.05005727 0.05000804 0.050007224 0.050032057 0.049960528
0.049945001 0.050012052 0.049990069 0.050000072 0.049971055 0.049994029
0.050025012 0.049933262 0.049957942 0.050012037 0.05002724 0.050016042
0.050008018 0.050002128 0.050033033 0.049993102 0.04999619 0.050060097
0.050012246 0.04999312 0.049951404 0.049942099 0.050031047 0.050072011
0.050030183 0.050009098 0.050011177 0.050027262 0.050030198 0.049973719
0.049969062 0.049963243 0.049991008 0.049985133 0.050022043 0.050007194
0.049965061 0.049965061 0.049987052 0.049998201 0.049998049 0.050076421
0.049943011 0.049819022 0.049985319 0.050138164 0.050080158 0.050023049
0.049986187 0.049989253 0.050070185 0.049979366 0.049920369 0.049944069
0.04988661 0.050024696 0.050031289 0.049924266 0.050042298 0.04999641
0.050035674 0.050021309 0.049881067 0.049982019 0.050061256 0.049959753
0.049998533 0.050026223 0.049977321 0.049985491 0.050094079 0.04997031
0.049984094 0.050000779 0.050022699 0.050013136 0.049939297 0.05004023
0.049929164 0.050008222 0.050069109 0.050060544 0.050038218 0.049940567
0.049964342 0.050072387 0.050040036 0.050021548 0.050011523 0.050041914
0.050015077 0.050017562 0.050069001 0.049888071 0.049954124 0.050023012
0.04997202 0.050008032 0.050114002 0.04995504 0.049929101 0.05005201
0.049999021 0.050056022 0.049877252 0.049959179 0.05012805 0.049999006
0.050053999 0.049906563 0.049981043 0.050151236 0.049990047 0.049918111
0.049959008 0.050060295 0.050001211 0.049993433 0.050065488 0.049971305
0.049987391 0.049997769 0.050035279 0.05005271 0.049995109 0.050059296
0.050063308 0.049918391 0.049907543 0.050073441 0.05002109 0.049959015
0.049902238 0.049966328 0.050100174 0.049902048 0.049855351 0.050054345
0.050010528 0.050093826 0.050097164 0.04999657 0.050029069 0.049920078
0.050000757 0.050105918 0.050023273 0.050065581 0.049897086 0.049806934
0.049994502 0.050111171 0.050091099 0.050018467 0.050007042 0.050024375
0.050066039 0.050015509 0.049916018 0.049895443 0.049944013 0.049978171
0.050022036 0.05007308 0.049883999 0.049883999 0.049958006 0.049935132
0.049968049 0.05006424 0.050013151 0.049781159 0.049977269 0.050124042
0.050047882 0.049979303 0.049956731 0.050002687 0.050010469 0.049953207
0.049876094 0.049911588 0.049957342 0.049949817 0.050097689 0.049967483
0.049980305 0.049954664 0.050038859 0.050063074 0.049874935 0.050019179
0.050065376 0.049983453 0.050036933 0.050046865 0.049959026 0.049944904
0.050079986 0.050028153 0.049938101 0.050007883 0.050088156 0.050031729
0.049947117 0.050014418 0.05001026 0.049992863 0.049971808 0.050084721
0.0500089 0.049958624 0.050038449 0.050088737 0.049991596 0.049885269
0.049994402 0.050104279 0.050083779 0.050093472 0.05016537 0.04990517
0.049978066 0.050072141 0.049966 0.050043032 0.050037004 0.050037261
0.049988266 0.049995128 0.049967088 0.050041117 0.049951002 0.04996812
0.050125033 0.050024003 0.050116129 0.049886227 0.049947202 0.050159153
0.05000326 0.049957257 0.050034162 0.050040722 0.050018031 0.050107036
0.050023228 0.04996296 0.050055534 0.049950335 0.050001025 0.050003864
0.049973365 0.050083749 0.050041549 0.049983833 0.049973894 0.050091375
0.050066687 0.04994512 0.049969904 0.049935985 0.050093785 0.049970433
0.049845301 0.050027188 0.050004259 0.050112206 0.05009529 0.050002351
0.049999449 0.049947109 0.050003182 0.049985547 0.049998544 0.050124064
0.049969576 0.049833901 0.049898468 0.049979024 0.050080828 0.04999179
0.049996525 0.049890995 0.050033018 0.050096475 0.049922016 0.049926534
0.049934082 0.049974389 0.049985059 0.050088096 0.049802016 0.049802016
0.049924046 0.049924087 0.049955115 0.050028209 0.049992211 0.049763482
0.050009403 0.050013386 0.049973063 0.049903102 0.049905092 0.050023098
0.049991783 0.049902231 0.049887594 0.049903758 0.049895782 0.049985215
0.05005569 0.049999859 0.05000411 0.049960762 0.049984545 0.05001197
0.049899254 0.05003934 0.050045051 0.050005257 0.05007885 0.050022967
0.049967568 0.049980626 0.050036106 0.050096657 0.04999854 0.050002981
0.050059948 0.050033648 0.050010059 0.050000317 0.050034914 0.04993806
0.049948324 0.050163791 0.050051369 0.050019909 0.050108556 0.050036404
0.049961682 0.049877573 0.050011076 0.050141055 0.050163705 0.05010052
0.050145887 0.050003659 0.049968112 0.050112635 0.050007042 0.050057311
0.04999005 0.050128367 0.050001033 0.049961295 0.05000101 0.0499871
0.050087009 0.049987085 0.05001406 0.050078068 0.050180204 0.049941059
0.049965862 0.050129108 0.050047617 0.050054263 0.050100863 0.050037708
0.050089762 0.05014858 0.050027695 0.049924146 0.050031655 0.04994861
0.049967021 0.050069541 0.04998076 0.050087038 0.050083037 0.049980916
0.049994458 0.050076257 0.050082806 0.049985074 0.050050121 0.049983505
0.050049014 0.049975805 0.049868032 0.050028268 0.05002911 0.050074197
0.050051235 0.050017342 0.04998742 0.049996477 0.049952805 0.04989792
0.049965482 0.050064243 0.050013527 0.049915466 0.049857438 0.04990761
0.050044756 0.049979303 0.050028607 0.049770746 0.049970482 0.050109591
0.049931273 0.049940594 0.049907234 0.049942214 0.0499231 0.050025001
0.049776025 0.049776025 0.049897045 0.049889185 0.049918301 0.050019488
0.049930461 0.049736194 0.049988661 0.049891684 0.049901366 0.049807768
0.049827438 0.050043117 0.049989857 0.049896028 0.049928062 0.049900111
0.049809951 0.050041445 0.04995399 0.049958214 0.050063096 0.050013099
0.049951736 0.049931571 0.049936235 0.050021175 0.05001599 0.04999755
0.050135221 0.049995642 0.049926385 0.049987104 0.050002009 0.050147902
0.050072074 0.050054338 0.050042894 0.050017204 0.050074968 0.050015956
0.050046802 0.04995751 0.050007109 0.050178282 0.050114349 0.050032578
0.050123215 0.05006266 0.049979791 0.049973089 0.050070155 0.050164144
0.050179686 0.050071094 0.050122805 0.05010904 0.049971201 0.050126746
0.050031088 0.050044645 0.050020207 0.050166205 0.050012153 0.049957164
0.050058004 0.050014004 0.050155148 0.050006006 0.049942397 0.050106
0.050266486 0.050031152 0.049982179 0.050097287 0.050079804 0.050124459
0.050144371 0.050119858 0.050164271 0.050104465 0.050079424 0.04987473
0.049982034 0.050009519 0.04998732 0.050173707 0.050030183 0.050126459
0.050117902 0.049955186 0.049988821 0.050056394 0.050109159 0.050007429
0.050052926 0.050027445 0.050030153 0.049979698 0.049946189 0.050102405
0.050022546 0.050041333 0.050054014 0.050022837 0.049938649 0.049991392
0.049876947 0.04987973 0.049942162 0.049927134 0.049982265 0.049952801
0.049792215 0.049922455 0.050027642 0.04999461 0.050049849 0.04971312
0.049866058 0.050040562 0.049925577 0.049906239 0.049846247 0.049907017
0.049866155 0.04992801 0.049839038 0.049839038 0.049848121 0.049823556
0.049864456 0.049990281 0.049860056 0.049729299 0.049934242 0.049802493
0.049842648 0.049746715 0.049768507 0.050015941 0.049985215 0.049908109
0.049950365 0.049866084 0.049775623 0.05006133 0.049874835 0.049864233
0.050085135 0.050042551 0.049978863 0.049908277 0.049943622 0.049986765
0.049977541 0.04999055 0.050141566 0.049968012 0.049888093 0.050006881
0.049995929 0.050147396 0.050101154 0.050130595 0.05008141 0.050021738
0.050101198 0.050007544 0.050084185 0.050058238 0.050126288 0.050140489
0.050135601 0.05001846 0.050118208 0.050154187 0.050028756 0.050064031
0.050136961 0.050218154 0.050172485 0.050093289 0.050142705 0.050163675
0.050009467 0.050166927 0.050020102 0.05001197 0.050100259 0.050136145
0.050033491 0.050047029 0.05012602 0.050108064 0.050148532 0.050057031
0.049979217 0.050107379 0.050302178 0.050066385 0.050005179 0.050067846
0.050093826 0.050144147 0.050172966 0.050239574 0.05017855 0.050072543
0.050165694 0.049892392 0.050009225 0.05009038 0.05006475 0.050237849
0.050095778 0.050166946 0.050110076 0.050000038 0.049998216 0.050057203
0.050131895 0.04999597 0.050032716 0.050017379 0.050047666 0.049993083
0.050018627 0.050177854 0.05004156 0.050037559 0.050047118 0.049994025
0.04991854 0.049960554 0.049796972 0.049855243 0.049931914 0.049825661
0.04991395 0.04992 0.049722403 0.049970612 0.050041951 0.050023239
0.049966898 0.049696349 0.049751788 0.049896788 0.049853884 0.049854059
0.049804416 0.049901005 0.049858306 0.049833 0.049868006 0.049868006
0.049754336 0.049788896 0.049789425 0.049915269 0.049805582 0.049713247
0.049873274 0.049738169 0.04979964 0.04974629 0.049727526 0.049931616
0.049968228 0.049904723 0.049918734 0.049784843 0.049786821 0.050037716
0.049854945 0.049783349 0.050061509 0.050024204 0.049992219 0.049941424
0.049925156 0.049980335 0.049936201 0.050004952 0.050117716 0.049942028
0.049886048 0.050047781 0.050023928 0.050095834 0.050075177 0.050183766
0.050150879 0.050075673 0.0500989 0.049967244 0.050134636 0.050174724
0.050256908 0.050099373 0.050133422 0.050058238 0.050152343 0.050220978
0.050087925 0.050111346 0.050171413 0.050320983 0.050170518 0.050202131
0.050182134 0.050175015 0.050070129 0.050250806 0.050019268 0.04998821
0.050207227 0.050104182 0.050086346 0.050212 0.050199229 0.050195176
0.050134782 0.050125204 0.050077621 0.050108146 0.050263919 0.050031628
0.050071251 0.05004596 0.050124228 0.050152779 0.050197713 0.05032438
0.050150614 0.050125051 0.0502716 0.050010759 0.050140038 0.050138395
0.050138075 0.050262503 0.050134275 0.050170377 0.050107099 0.0501002
0.050039239 0.050116651 0.050139569 0.049968347 0.050021097 0.049989097
0.050063651 0.050036732 0.05005068 0.050189387 0.050081283 0.050052594
0.050021846 0.049927153 0.049941465 0.049900211 0.049733706 0.049815524
0.04992846 0.049793433 0.04984583 0.049832381 0.049695168 0.049988873
0.050054558 0.050017025 0.049791388 0.049718235 0.04965781 0.049734585
0.049720503 0.049814161 0.049792964 0.049878143 0.049848396 0.049775027
0.049810119 0.049810119 0.049637407 0.049801752 0.049684312 0.049802613
0.049764682 0.049651686 0.049788389 0.049678836 0.049769908 0.049762711
0.04968616 0.049828656 0.049922165 0.049889911 0.049839038 0.049670111
0.049823809 0.049975812 0.049856335 0.049761079 0.050003018 0.049988963
0.049933698 0.049970489 0.049912695 0.050004017 0.049918305 0.050024372
0.050106775 0.04993391 0.049900044 0.050104335 0.050071474 0.050032698
0.050027017 0.050188992 0.050222017 0.050147157 0.050094415 0.04994132
0.050161019 0.050272081 0.050351478 0.050084256 0.050151035 0.050181385
0.050249621 0.050239496 0.050151456 0.05015273 0.050173253 0.050429739
0.050165486 0.050357811 0.050231136 0.050175261 0.050129011 0.050345894
0.050098922 0.050023023 0.050313193 0.050104208 0.050169148 0.050384007
0.050255228 0.050236162 0.050153464 0.050186377 0.050168023 0.050146151
0.05021191 0.049980942 0.050196394 0.05006342 0.05018447 0.050205093
0.050234534 0.050343215 0.050146423 0.050251871 0.050376255 0.050175268
0.050328165 0.05016144 0.050169177 0.050263725 0.050139535 0.050170708
0.050146982 0.05016863 0.050087873 0.05021913 0.050155826 0.049958121
0.050029367 0.049973845 0.050049305 0.050115317 0.050043046 0.050149586
0.050084773 0.050078679 0.049991228 0.049837828 0.049957268 0.049815346
0.049712449 0.049782518 0.049912442 0.049777262 0.049789242 0.049709465
0.049701024 0.049946215 0.050040819 0.0499603 0.049617995 0.049751744
0.049566016 0.049611613 0.049572326 0.049787603 0.049789511 0.049798593
0.04978434 0.049745057 0.049706113 0.049706113 0.049533147 0.04981336
0.049553238 0.049678955 0.049713522 0.049537502 0.049658846 0.049620681
0.049749121 0.049732734 0.049628228 0.049749553 0.049860321 0.049867749
0.049742892 0.049575523 0.049868401 0.049876478 0.049800795 0.049780443
0.049937136 0.049958587 0.049823858 0.04993856 0.049906399 0.050016962
0.0499315 0.050034717 0.050113201 0.049948316 0.04990904 0.050184894
0.050110552 0.049991746 0.049986482 0.050135087 0.050287671 0.050209716
0.050106261 0.04995193 0.050146103 0.050351162 0.05040884 0.050099354
0.050207913 0.050350398 0.050379124 0.050245121 0.050247557 0.050236419
0.050160021 0.050501321 0.05016068 0.050487515 0.050292697 0.050191905
0.050183099 0.050396528 0.050248008 0.050143532 0.050388247 0.050118186
0.050260153 0.050483011 0.050297029 0.050261073 0.050194018 0.050234254
0.050217263 0.050227534 0.050228126 0.049966265 0.050352283 0.050159883
0.050268911 0.050316267 0.050293893 0.050314266 0.050195731 0.050382387
0.050458454 0.050305124 0.050489623 0.050226182 0.050166439 0.050236683
0.050149489 0.050228443 0.05022911 0.050147597 0.050091721 0.050305855
0.050198905 0.049998898 0.050055593 0.049962897 0.050033718 0.050191797
0.050017904 0.050088447 0.050035112 0.050095361 0.049936645 0.04975247
0.049914125 0.049769029 0.049736895 0.049759984 0.04986988 0.049726214
0.049740568 0.049541321 0.049694225 0.049868885 0.0500089 0.049900409
0.04950669 0.049740415 0.049460772 0.049529999 0.049441602 0.049742181
0.049774259 0.049689017 0.049670223 0.049700052 0.049628008 0.049628008
0.049459003 0.049767137 0.049438156 0.049556743 0.04962527 0.049412716
0.049508054 0.049581185 0.049708441 0.049633361 0.049548104 0.049717646
0.049817704 0.049817368 0.049654439 0.049559124 0.049883295 0.049746316
0.049654461 0.049779829 0.049905621 0.049922533 0.049736705 0.049870402
0.049892914 0.049980275 0.049955819 0.050032135 0.050098296 0.04997582
0.049937934 0.050281174 0.050105736 0.049981717 0.049967214 0.050035723
0.050345436 0.050266955 0.050151136 0.049980752 0.050108999 0.050419301
0.050445322 0.050128225 0.050284699 0.050519228 0.050465778 0.050286282
0.050382916 0.050377704 0.050145969 0.050545886 0.050194524 0.050531875
0.050346743 0.050236087 0.050250039 0.050346751 0.050388601 0.050299115
0.050418455 0.050130121 0.050342221 0.050444003 0.050327316 0.050315008
0.050241396 0.050296079 0.050241001 0.050316095 0.050335258 0.050000057
0.05047375 0.050314281 0.050371338 0.050449476 0.050368987 0.050264623
0.050264552 0.050457608 0.050501391 0.050362248 0.050570171 0.05035723
0.050170079 0.050206751 0.050219391 0.050347917 0.050334528 0.050052855
0.050037246 0.05032628 0.050267715 0.050100077 0.05006396 0.049941566
0.050056498 0.050236646 0.049997628 0.049995102 0.049974684 0.050079595
0.049839217 0.049700834 0.049796369 0.049823456 0.049770851 0.049735609
0.049818132 0.049649049 0.04967149 0.049345754 0.049648374 0.049810134
0.049978569 0.049873069 0.049443126 0.049633335 0.049360059 0.049450699
0.049346946 0.049661733 0.049741536 0.049610287 0.049528126 0.049625043
0.049608018 0.049608018 0.04941221 0.049664047 0.049402032 0.049436014
0.049477838 0.049331598 0.049396593 0.049581185 0.049615234 0.049482405
0.049454428 0.049719524 0.049815543 0.049724791 0.049585581 0.049624857
0.049841918 0.049613237 0.049469501 0.049712833 0.049920298 0.049854439
0.049727887 0.049849454 0.049866613 0.049913395 0.04998146 0.050004337
0.050022632 0.050018106 0.050035097 0.05034269 0.050032541 0.050003417
0.049970329 0.049943134 0.050379857 0.050326623 0.050232053 0.050025895
0.050098851 0.050482206 0.050476797 0.050158687 0.050352484 0.050644644
0.050458301 0.050379153 0.050521556 0.050521903 0.050183028 0.05057412
0.050306004 0.050462481 0.05036629 0.050290469 0.050354093 0.050210036
0.050422773 0.050429031 0.05039373 0.050175019 0.050395142 0.050259002
0.05032903 0.050398014 0.050284754 0.050396018 0.05025135 0.050377004
0.050468046 0.050065286 0.05051912 0.050443321 0.050472803 0.050557077
0.050442059 0.05020706 0.050313391 0.050484627 0.050491042 0.050385021
0.050539803 0.050538119 0.050198417 0.050252061 0.050382663 0.05048148
0.05044283 0.049952589 0.049998157 0.050286699 0.050339207 0.050222985
0.05002122 0.049933136 0.050124194 0.050247114 0.050003156 0.049846005
0.049953766 0.050025731 0.049735438 0.049697477 0.049651191 0.049965441
0.049772825 0.049701598 0.049790654 0.049593423 0.049539216 0.049217243
0.04957689 0.049802858 0.049967587 0.049852587 0.049393002 0.049425736
0.049305003 0.04935655 0.049311228 0.049565751 0.0496912 0.049587764
0.049366102 0.049550083 0.049607009 0.049607009 0.049399246 0.049564
0.049467005 0.049328357 0.049268309 0.049296632 0.049346562 0.049620152
0.049471248 0.049321048 0.049360946 0.049708568 0.04984656 0.049618591
0.049546368 0.049715087 0.049766686 0.049527451 0.049341589 0.049581569
0.049941182 0.049757741 0.049805082 0.049935877 0.049843509 0.049882174
0.050007775 0.049934287 0.049897447 0.050063435 0.050196361 0.050324649
0.049919024 0.050053474 0.050010655 0.049935281 0.050378669 0.050390415
0.050333049 0.050093714 0.050164886 0.050523706 0.050523572 0.050194986
0.050404102 0.050685637 0.050381064 0.050505914 0.050610617 0.05055692
0.050322585 0.050587192 0.050454907 0.050335065 0.05034513 0.050318014
0.050508123 0.050054558 0.050337322 0.050489679 0.050304566 0.050288104
0.050374009 0.050012007 0.05029016 0.05044112 0.050338484 0.050504003
0.050245348 0.050403003 0.050521102 0.050149046 0.050504152 0.050472196
0.050527256 0.05060719 0.050496105 0.050163049 0.050332181 0.05052004
0.050433002 0.050438289 0.050426092 0.050712064 0.050248891 0.050426114
0.050618034 0.050592728 0.050523605 0.049925096 0.050073858 0.050243158
0.050382204 0.050291982 0.049953856 0.049970128 0.050191764 0.050223101
0.050031152 0.049685657 0.049975667 0.049960699 0.049689829 0.049741637
0.049564812 0.05008984 0.049738318 0.049660128 0.049776986 0.049590312
0.049334407 0.049265124 0.049505606 0.049822729 0.049971756 0.049782805
0.049359616 0.04919181 0.049323305 0.049277116 0.049341206 0.049482495
0.049618356 0.049584471 0.049190164 0.049502321 0.049545016 0.049545016
0.049445007 0.049532272 0.049568005 0.04925891 0.049034066 0.049266119
0.049314242 0.049650513 0.049327239 0.049191285 0.049278058 0.049643971
0.049881242 0.049562778 0.049549446 0.049752221 0.049711436 0.049516346
0.049317807 0.049430091 0.04991718 0.049673706 0.049921453 0.050087083
0.049845234 0.049945727 0.050011586 0.049830191 0.04977892 0.050075363
0.050331298 0.050241336 0.049854301 0.050123084 0.050102677 0.050057072
0.050363284 0.050461084 0.050421003 0.050162587 0.050301291 0.050515
0.05058917 0.050269082 0.050435387 0.050633106 0.05030258 0.050657999
0.050575923 0.050463367 0.050519239 0.050610311 0.050539169 0.050274823
0.050318155 0.050300978 0.050689626 0.049956191 0.050237253 0.050425548
0.050189074 0.050414898 0.050253026 0.049833 0.050224263 0.050379217
0.050402414 0.050524026 0.050235588 0.050386019 0.050450388 0.050247777
0.050464369 0.050393563 0.050488275 0.050605223 0.050523516 0.050164025
0.050328813 0.0506051 0.050375082 0.050518915 0.050344348 0.05078933
0.050362103 0.050636221 0.050870407 0.050669111 0.050554901 0.05001726
0.050275557 0.050247557 0.050373178 0.050253998 0.049937531 0.050042015
0.050207708 0.050156906 0.050053854 0.049606126 0.050005861 0.049930509
0.049733203 0.049824376 0.049603648 0.050077509 0.049696539 0.049636584
0.049722556 0.049620621 0.04911916 0.049489859 0.049438544 0.049814112
0.049964234 0.049649969 0.049365513 0.049054574 0.049417179 0.049245171
0.049408846 0.049423873 0.04951109 0.049535654 0.04903822 0.049470972
0.04938703 0.04938703 0.049552266 0.049576975 0.049593046 0.049227417
0.048862115 0.049215999 0.049240328 0.049606424 0.049242172 0.049129177
0.04922533 0.049536847 0.049878784 0.049586758 0.04959796 0.049698811
0.049696479 0.049568422 0.049383048 0.049323186 0.049842015 0.049641654
0.050004024 0.050189774 0.049883272 0.050097089 0.049963225 0.049739383
0.049711619 0.050019305 0.050335564 0.050163664 0.049923513 0.050187573
0.050236624 0.050272141 0.050382003 0.050556999 0.05044258 0.050213024
0.050425105 0.050466191 0.050634533 0.050415367 0.050446395 0.050533459
0.050284714 0.050792817 0.050446901 0.050345138 0.050690174 0.050606824
0.050538536 0.050356999 0.050352231 0.050253876 0.050827246 0.049973901
0.050194409 0.050260171 0.05007118 0.050453115 0.050048046 0.049803026
0.050145142 0.05024014 0.050414216 0.050384488 0.050252099 0.050318182
0.050303444 0.050348844 0.050403066 0.050260764 0.050370805 0.050581843
0.050532453 0.05022981 0.050324515 0.050735451 0.050355751 0.050599247
0.050385777 0.050798532 0.050553426 0.050748397 0.051056042 0.050705999
0.050560005 0.050226029 0.050501049 0.050289687 0.050327685 0.050144028
0.050020043 0.050088964 0.050160214 0.05004796 0.050036106 0.049665362
0.050023217 0.04996356 0.049838487 0.04992757 0.049747828 0.049915884
0.049670212 0.04966405 0.049596172 0.04963997 0.049000457 0.049750421
0.049375925 0.049744017 0.049901221 0.049503915 0.049400691 0.049094703
0.049551982 0.049254529 0.049458075 0.049384017 0.049371675 0.049406871
0.048975077 0.049418986 0.049179059 0.049179059 0.049662687 0.04963595
0.04947035 0.049197052 0.048847716 0.049178038 0.049123794 0.049470305
0.049220186 0.049140524 0.049219131 0.049449455 0.049809907 0.049631804
0.049663648 0.049587086 0.049667835 0.049632292 0.049489722 0.049308788
0.049759865 0.049658742 0.050013296 0.050156072 0.049948521 0.050257158
0.049870797 0.049722988 0.049691249 0.049923465 0.05021549 0.050154965
0.050122082 0.050230619 0.050372548 0.050486267 0.050473038 0.05067708
0.050389219 0.050248001 0.050484441 0.050416082 0.050642204 0.050618127
0.050464731 0.050461378 0.050366268 0.050814871 0.050368171 0.050306968
0.050797369 0.050536659 0.050522339 0.050551075 0.050467867 0.050210338
0.0508301 0.050085556 0.050208881 0.050060846 0.049937256 0.050352156
0.049835019 0.049887188 0.050053313 0.050115023 0.050284006 0.050133221
0.050304759 0.050214171 0.05015365 0.050432257 0.050286189 0.050125107
0.050276931 0.050566155 0.050538212 0.050360832 0.050344635 0.050866105
0.050389487 0.050652537 0.050558839 0.050836872 0.050780132 0.050765168
0.051078122 0.050717011 0.050596125 0.05050138 0.050625622 0.050313026
0.050277498 0.05005765 0.050154846 0.05007533 0.050091673 0.049916469
0.049975999 0.049838752 0.050047521 0.050058212 0.049953748 0.050001938
0.049903486 0.04971901 0.049654581 0.049739141 0.049440071 0.049642131
0.049048372 0.049870156 0.049330167 0.049622312 0.049750499 0.049397595
0.049424998 0.049271073 0.049653068 0.049269471 0.049436927 0.049375594
0.049233861 0.04922501 0.049036037 0.04932284 0.049015962 0.049015962
0.049686294 0.049627088 0.049235813 0.049134303 0.049008049 0.049189012
0.049021591 0.049307138 0.049214348 0.049208265 0.049262498 0.049437039
0.049683094 0.049596049 0.049711056 0.049502783 0.049560972 0.049646091
0.04959387 0.049388532 0.049709223 0.049697146 0.049960453 0.049999293
0.05000848 0.050333433 0.049785119 0.049793165 0.049687251 0.049861383
0.050096549 0.050208569 0.050352789 0.050256059 0.050466143 0.050613981
0.050631925 0.050771005 0.050340269 0.050286017 0.050507005 0.050411008
0.05064401 0.050810087 0.050514057 0.050497618 0.050508656 0.050692812
0.050412338 0.050416157 0.050831441 0.050439343 0.05055216 0.050737888
0.05060621 0.050195195 0.05066539 0.050193589 0.050238464 0.049888279
0.049794599 0.050128847 0.049717005 0.049945299 0.049959999 0.050028007
0.04998932 0.049900882 0.050361674 0.0501174 0.050052937 0.050469965
0.050124101 0.050031148 0.050299667 0.050566956 0.050551668 0.050536148
0.05042322 0.050943676 0.050479371 0.05066653 0.05079592 0.050942998
0.050994039 0.050757304 0.050951008 0.050716117 0.050707027 0.050762665
0.050610144 0.050286103 0.050247654 0.050053999 0.050246924 0.050054722
0.050060242 0.04978963 0.049928244 0.05004945 0.050099898 0.050182451
0.050037578 0.04998365 0.049982473 0.049624547 0.049633082 0.049800564
0.049349856 0.049668025 0.049235921 0.049788766 0.049316429 0.049481533
0.049510024 0.049338944 0.049413063 0.049449764 0.049656179 0.049248029
0.049362004 0.049382895 0.049166005 0.049066748 0.04917739 0.049179789
0.048958462 0.048958462 0.049577005 0.049509432 0.049020294 0.049041506
0.049238831 0.049231138 0.048979461 0.049205188 0.049182795 0.049295403
0.049321201 0.049489077 0.049547344 0.049447957 0.049716786 0.049516056
0.049387768 0.049576841 0.049654674 0.049513232 0.049679708 0.049740739
0.049891844 0.049799189 0.050023515 0.050284095 0.049743202 0.049901836
0.049701467 0.049881756 0.050087247 0.050279167 0.050494853 0.050290596
0.050513331 0.050646808 0.050779089 0.050811529 0.050370634 0.050385073
0.050551422 0.050481025 0.050691999 0.050937533 0.050593287 0.050674051
0.050633196 0.050504472 0.050531525 0.050641067 0.050809417 0.050381642
0.050628047 0.050788458 0.050688397 0.050221678 0.050388932 0.050214708
0.050207365 0.049792554 0.049684078 0.049843051 0.049722999 0.049873125
0.049861521 0.0499142 0.049632799 0.049786426 0.050336003 0.050057784
0.050018653 0.050443597 0.050001394 0.050031662 0.050425898 0.050570279
0.050577942 0.050707858 0.050584719 0.050949004 0.050632693 0.050682113
0.050991807 0.051060274 0.051144172 0.050798263 0.050813019 0.050713342
0.050879061 0.050918635 0.050525516 0.050250657 0.050241496 0.050115876
0.050253335 0.050115801 0.050092325 0.049711648 0.049961906 0.050225522
0.050160319 0.050277445 0.050056458 0.049851984 0.049972124 0.049668998
0.049598213 0.049791023 0.049390316 0.049739372 0.049463887 0.049592335
0.049322389 0.049347684 0.049231142 0.049301378 0.04937901 0.04951461
0.049548998 0.049177203 0.049281318 0.049364414 0.049208574 0.049016044
0.049287464 0.049016666 0.048992492 0.048992492 0.049396098 0.049273733
0.048934802 0.048969235 0.049379364 0.049241375 0.048992168 0.049198966
0.049135078 0.049369264 0.049359087 0.049553882 0.049448498 0.049281988
0.04968388 0.049600571 0.049249928 0.049454194 0.049633835 0.049613807
0.049651086 0.049790349 0.049838271 0.049631748 0.049991414 0.050134592
0.049736209 0.049973343 0.049781058 0.049963385 0.050165288 0.050335124
0.050511055 0.050367549 0.050554764 0.050632264 0.050834142 0.050814088
0.05049745 0.050584182 0.050655778 0.050620183 0.050810013 0.051005673
0.050707214 0.050925825 0.050708562 0.05036607 0.050643016 0.050861657
0.050755288 0.050399542 0.050681956 0.050672781 0.050678566 0.050291017
0.050112959 0.050131984 0.050072987 0.049758002 0.049646977 0.049563002
0.049767017 0.049703006 0.049721476 0.049714327 0.049359355 0.04977002
0.050141271 0.050016358 0.050053343 0.050372861 0.050004363 0.05017839
0.050556414 0.050566748 0.0506262 0.050826497 0.050811201 0.050929699
0.050842993 0.050773006 0.051083252 0.051089246 0.051201507 0.050917339
0.050781026 0.050755523 0.051033467 0.050926015 0.050483178 0.050295319
0.050263248 0.050204247 0.050237034 0.050265752 0.050160836 0.049744505
0.050103463 0.050319273 0.050164841 0.050270747 0.049992394 0.049686734
0.049911592 0.049775336 0.049565408 0.049730655 0.049527939 0.049797513
0.049642049 0.04941006 0.049322609 0.049236998 0.048999328 0.049264349
0.049342856 0.049432132 0.049381003 0.049093101 0.049207162 0.049320545
0.049287967 0.049094442 0.04926813 0.048885368 0.049052924 0.049052924
0.049235005 0.04899694 0.048965361 0.04897638 0.049328465 0.049180858
0.049016468 0.049238186 0.04911533 0.049412973 0.049361814 0.049577985
0.049388062 0.04923252 0.049629651 0.04963005 0.049233135 0.049365062
0.04952715 0.049658049 0.04962866 0.049827233 0.04979939 0.049530752
0.049947441 0.04994683 0.049736097 0.049969375 0.049952816 0.050044365
0.050201036 0.050385796 0.050468132 0.050501261 0.050631732 0.050621815
0.050794851 0.050801769 0.050694123 0.050846372 0.050825868 0.050797313
0.050965067 0.051060092 0.050867461 0.051148508 0.050766055 0.050358344
0.050691888 0.05098265 0.050698161 0.050473474 0.050663248 0.050473858
0.050594125 0.050374743 0.04993083 0.049990483 0.049868137 0.049699001
0.049676433 0.049358066 0.049716134 0.049523301 0.049527101 0.049444653
0.049240973 0.049760208 0.049784157 0.049941204 0.050132066 0.05028991
0.050141908 0.050446972 0.050614245 0.050578404 0.050700709 0.050882444
0.051051352 0.050966404 0.05107975 0.05097701 0.051103011 0.051006012
0.051173326 0.051073 0.050858013 0.050875399 0.051110022 0.050829738
0.050555237 0.050471812 0.050334722 0.050316352 0.050298594 0.050406951
0.050218441 0.049916774 0.05030413 0.050312202 0.050083008 0.050127983
0.049872376 0.049619619 0.049822871 0.049842261 0.049554992 0.0496982
0.049661152 0.049748555 0.049739227 0.04930884 0.049296871 0.049174819
0.048888523 0.049226005 0.049296435 0.049243968 0.049229261 0.049048487
0.049159188 0.049223032 0.049325205 0.049213231 0.049114008 0.048823003
0.049096011 0.049096011 0.049126592 0.04879605 0.04901658 0.049062736
0.049122903 0.04905824 0.049027212 0.049234033 0.049141407 0.049427342
0.049352296 0.049537707 0.049330436 0.049331304 0.049560994 0.049497303
0.049318731 0.049382612 0.04939048 0.049660143 0.049637545 0.049815644
0.049770713 0.049499292 0.049925406 0.049776465 0.049733482 0.049924664
0.050169058 0.050090041 0.050121199 0.050439965 0.050466765 0.050682265
0.050740041 0.050635982 0.050737429 0.050811417 0.050907649 0.051083662
0.051027954 0.050994154 0.051104143 0.051128186 0.051066775 0.051268172
0.050859764 0.050507337 0.050683588 0.050999664 0.050690725 0.050568227
0.050595295 0.050294053 0.050468795 0.050406963 0.04986994 0.049855754
0.049661003 0.04953368 0.049697004 0.049253467 0.049514391 0.049358822
0.049293082 0.049188331 0.049242616 0.049697828 0.049394388 0.049818955