# vtk DataFile Version 3.0
axinsert(project(permute(???,2,0,1),0,L2),2)
ASCII
DATASET STRUCTURED_POINTS
DIMENSIONS 128 256 1
ORIGIN 0 0 0
SPACING 1 1 1
POINT_DATA 32768
SCALARS nrrd92288 float
LOOKUP_TABLE default
0.050040003 0.050028641 0.049915154 0.049947206 0.049995039 0.049997058
0.050056081 0.050042003 0.049987126 0.050002098 0.049985077 0.049957
0.049991015 0.050002027 0.049989011 0.049944125 0.050006699 0.050104238
0.050033044 0.049995001 0.049995013 0.049986035 0.049951006 0.049971186
0.050009005 0.050035302 0.049973108 0.049994577 0.049994003 0.050022442
0.050044037 0.04997804 0.050011463 0.050009418 0.050016519 0.05002721
0.049983017 0.049965046 0.04995906 0.05000421 0.050007004 0.050019301
0.050008167 0.049977269 0.050012 0.050037026 0.050038077 0.050022066
0.049984198 0.049984004 0.050010365 0.049945999 0.05000101 0.050066002
0.050006006 0.049953017 0.049963128 0.049965024 0.049988009 0.050046224
0.050041307 0.049915019 0.049928199 0.050016284 0.05003804 0.050046012
0.050041288 0.049995027 0.049957223 0.049991105 0.050007034 0.050006002
0.049981009 0.049972001 0.050016005 0.050000027 0.049984001 0.049991135
0.050032001 0.050039001 0.05005401 0.050015885 0.049982004 0.049975656
0.049966 0.050023083 0.049959168 0.049965009 0.050040007 0.050023224
0.049954046 0.049972035 0.050016034 0.050026026 0.050041091 0.050040118
0.049993277 0.049907427 0.049950298 0.050015163 0.050051011 0.050052006
0.050015666 0.049970031 0.049988206 0.049977008 0.050003011 0.050028011
0.050024543 0.050009031 0.050021555 0.049986128 0.049966097 0.049963001
0.049957 0.049999263 0.04998504 0.04995716 0.050036054 0.050043009
0.050026037 0.049977023 0.050032072 0.050033156 0.050013002 0.049957655
0.049999304 0.049999304 0.050066009 0.050084207 0.049865998 0.049966998
0.049921025 0.049848098 0.050094686 0.050162148 0.050045062 0.05003801
0.049978033 0.049922999 0.050002001 0.04996502 0.049964089 0.049892068
0.049894031 0.050179631 0.050079238 0.049947459 0.050037514 0.049963318
0.049937006 0.049954176 0.049952298 0.050066266 0.0499762 0.049954951
0.050019324 0.050032321 0.050056256 0.049956791 0.050108474 0.049953129
0.049996942 0.050044224 0.049997143 0.049976129 0.049893562 0.050040208
0.049960244 0.050028805 0.05006326 0.050005414 0.050064035 0.050011136
0.050018307 0.050095644 0.04998805 0.049994294 0.050026231 0.049958158
0.049994007 0.050126083 0.049979005 0.049887046 0.049935021 0.049931027
0.049993001 0.050077006 0.05011503 0.049815007 0.049828999 0.050091017
0.050083056 0.050091024 0.049993031 0.049990278 0.050015073 0.049977008
0.050025027 0.049963091 0.04995307 0.050056119 0.050011147 0.049962133
0.04991702 0.050008018 0.050068107 0.050042003 0.050174199 0.050007176
0.049973059 0.049926437 0.049987003 0.05006396 0.049906004 0.050022632
0.050106671 0.049996544 0.049875241 0.050031528 0.050044183 0.049995154
0.049978208 0.050076317 0.050057139 0.049790196 0.049813051 0.050083511
0.05010527 0.050148215 0.050051514 0.049912505 0.05000424 0.049920969
0.04997424 0.050127294 0.050039534 0.050036162 0.049970005 0.049878005
0.049947184 0.050003048 0.04996955 0.050007369 0.049980216 0.049965639
0.050076179 0.050088961 0.050000064 0.049886633 0.049995009 0.050066043
0.050064024 0.049943097 0.049927011 0.049927011 0.049997006 0.050014313
0.049950141 0.050035238 0.049936038 0.049751032 0.050002307 0.050176255
0.050109655 0.050019238 0.049963158 0.049975529 0.049996693 0.049937695
0.049909931 0.049910493 0.049879111 0.05002445 0.050088614 0.049942348
0.050029472 0.049960546 0.050004631 0.050035253 0.049865711 0.050030209
0.050032616 0.049944676 0.050046496 0.050042354 0.049985521 0.049944635
0.050136786 0.049964633 0.049953297 0.050012816 0.050064526 0.05004517
0.04991198 0.050045989 0.049943931 0.050018825 0.050049026 0.050066434
0.050063509 0.049950562 0.050009545 0.050115909 0.050011553 0.049950045
0.050004136 0.05007039 0.050043371 0.050082676 0.050067272 0.04989107
0.049968179 0.049996018 0.049980007 0.05003402 0.050067022 0.049931139
0.049916308 0.050075006 0.050030082 0.05007603 0.049916029 0.049978018
0.050141014 0.04998203 0.050075062 0.049891375 0.049968008 0.050163355
0.049981207 0.049926244 0.04994636 0.05006275 0.050033718 0.050055783
0.050142124 0.049978465 0.050029632 0.049941093 0.050026711 0.050026953
0.049944635 0.050114106 0.050075106 0.049982864 0.049929384 0.05011262
0.050055768 0.049936082 0.049931586 0.049997769 0.050117761 0.0498771
0.049804781 0.050082967 0.050051663 0.050139211 0.05007752 0.049932323
0.050023932 0.049921975 0.049949355 0.050082564 0.050021254 0.050083123
0.04992475 0.049819198 0.049935415 0.0500057 0.050041616 0.049989086
0.049995404 0.049957298 0.050055012 0.050081965 0.049938038 0.049875621
0.049934071 0.050009385 0.050029002 0.050039072 0.04983706 0.04983706
0.049942009 0.049939197 0.049942166 0.050024327 0.049977247 0.049739257
0.049989399 0.05009225 0.050051756 0.049951956 0.049924485 0.049995739
0.049974024 0.049907081 0.049867757 0.049891416 0.049908936 0.049969893
0.050092321 0.049974672 0.049995124 0.049944591 0.049998172 0.050046131
0.049856801 0.050033014 0.050053496 0.049977213 0.050070863 0.050043382
0.049979307 0.049952641 0.050093155 0.050044674 0.049965613 0.050010674
0.050084468 0.050055824 0.049954385 0.050027672 0.05000142 0.049984924
0.04999394 0.050128605 0.050054837 0.049990315 0.050086107 0.050087411
0.049984399 0.049884778 0.04999461 0.050126556 0.050121933 0.050106727
0.050144788 0.049933411 0.049970176 0.050067328 0.049986016 0.050047159
0.050011013 0.050054383 0.049978275 0.050009113 0.049996037 0.050041117
0.050000001 0.049979091 0.050104007 0.05003101 0.050149158 0.049899139
0.049967475 0.050161131 0.050010432 0.049989313 0.050043505 0.050062068
0.050060835 0.050134812 0.050085627 0.049956523 0.050070778 0.049944732
0.04999597 0.050029397 0.049967907 0.050112784 0.050078131 0.050004017
0.049986124 0.050111897 0.050081752 0.049962737 0.050011225 0.049974687
0.050091255 0.049947765 0.049831461 0.05004885 0.050033364 0.05011316
0.050067514 0.049976643 0.05000129 0.049953725 0.049951117 0.049960941
0.049985841 0.050098076 0.049969081 0.049850766 0.04987289 0.049916752
0.050037581 0.049964506 0.049994253 0.049833778 0.050009146 0.050108816
0.049921144 0.04991173 0.049921244 0.049962386 0.04995605 0.050048027
0.049770001 0.049770001 0.049902048 0.049901161 0.049917258 0.05000338
0.049949422 0.049723826 0.049992617 0.049962942 0.049951687 0.049857274
0.049859256 0.050012611 0.049965214 0.049877681 0.049884882 0.049886055
0.049850326 0.049997613 0.050021417 0.049978193 0.050020527 0.049969152
0.049956538 0.049980111 0.049895499 0.050033223 0.050032742 0.049996313
0.05011443 0.050020192 0.049962491 0.049976159 0.050043948 0.050121553
0.05003519 0.050033495 0.050063904 0.050045051 0.050031096 0.050029237
0.050040852 0.049960494 0.049986452 0.050184637 0.050101686 0.050040733
0.050135929 0.050065368 0.049976569 0.049917232 0.050033391 0.050157335
0.05017592 0.050098885 0.050138079 0.050040897 0.049966197 0.050106734
0.050018068 0.050051466 0.049994104 0.050138339 0.049998999 0.049970247
0.050027002 0.050013065 0.050120018 0.04999806 0.050002106 0.050083041
0.050231319 0.049976081 0.049981087 0.050129145 0.050061759 0.050089397
0.050119948 0.050085001 0.050139241 0.050152 0.050084978 0.049916677
0.05003918 0.049975287 0.049987126 0.050117761 0.05000627 0.05012605
0.050115794 0.049991913 0.050006311 0.05009041 0.050108507 0.050002482
0.050065961 0.050013602 0.05005265 0.049973957 0.049892049 0.050068494
0.050028443 0.050071128 0.050048266 0.050003484 0.049961567 0.049977992
0.049907673 0.049887035 0.049947064 0.050007094 0.049987331 0.049909838
0.049810968 0.049877547 0.050010704 0.049957335 0.05001964 0.049727414
0.049923263 0.050083779 0.049921505 0.049911574 0.04987235 0.049918145
0.049884144 0.049972001 0.049778029 0.049778029 0.04985908 0.049843349
0.049874447 0.049983852 0.049880829 0.049707819 0.049953066 0.049840681
0.049867056 0.049764231 0.049785048 0.050012775 0.049964122 0.049877744
0.049918376 0.049872041 0.049779903 0.050034333 0.049919337 0.049913388
0.050062269 0.050014775 0.049950071 0.04991689 0.04992722 0.050006632
0.049999174 0.049992286 0.050145246 0.049992882 0.049922768 0.049996257
0.050013967 0.050159823 0.0500996 0.050096549 0.050069898 0.050036836
0.050093468 0.050036568 0.050071582 0.050012499 0.050065845 0.050186433
0.050148319 0.050046854 0.050143033 0.050114822 0.050011095 0.050015904
0.050103057 0.050192747 0.050187152 0.050084669 0.050132945 0.0501334
0.049985345 0.050135892 0.050028104 0.050031833 0.050041251 0.050155208
0.050018258 0.049995117 0.050089002 0.050058998 0.050165221 0.050030015
0.049966607 0.050107036 0.05029973 0.050052207 0.050002273 0.050099436
0.050093878 0.050148733 0.050169364 0.050182287 0.050194293 0.050113786
0.05013983 0.049894359 0.050015159 0.050053917 0.050037883 0.050216857
0.050072864 0.050167236 0.050135549 0.049993876 0.050011352 0.050074551
0.050135061 0.050017565 0.050065715 0.050036337 0.050047562 0.049985677
0.049975049 0.050139606 0.050030421 0.050043844 0.050043933 0.05000288
0.049922213 0.049968585 0.049831148 0.049857397 0.049920999 0.049875621
0.049942859 0.049921587 0.049741279 0.049908016 0.050004881 0.049977317
0.050000019 0.049676765 0.049807273 0.049975853 0.049885903 0.049867231
0.049811419 0.049889021 0.049841255 0.049869001 0.049825009 0.049825009
0.049787212 0.049780764 0.049809545 0.049934827 0.04981048 0.04969601
0.049890921 0.049753703 0.049803641 0.049721215 0.049727339 0.04996068
0.049955733 0.049881265 0.049919084 0.049820036 0.049756393 0.050037038
0.049856376 0.049817879 0.050065916 0.05002692 0.04997329 0.049911059
0.049926687 0.049979638 0.049958415 0.049994525 0.050138213 0.049967267
0.049897887 0.050027844 0.05001935 0.050143793 0.050112359 0.0501686
0.050122682 0.050063074 0.050117586 0.050018921 0.05011975 0.050122209
0.050196048 0.050152671 0.050162394 0.050054554 0.050152037 0.050200559
0.050069649 0.050097037 0.050164606 0.05026713 0.050185431 0.050137207
0.050159015 0.050175335 0.050032772 0.050196327 0.050018176 0.05000117
0.050135285 0.050127178 0.050051462 0.050110016 0.050160062 0.050149094
0.050155602 0.050089069 0.050025351 0.050111599 0.050308462 0.050066445
0.050042275 0.050073195 0.050120011 0.050166752 0.050203286 0.05029637
0.050195787 0.050114311 0.050232645 0.049954683 0.050080422 0.050132114
0.050120156 0.050274987 0.050135251 0.050195128 0.050133463 0.050061628
0.050035335 0.050098546 0.05015412 0.05000231 0.050047826 0.050021645
0.050066628 0.050012026 0.050038472 0.050190385 0.05005677 0.050044023
0.050030567 0.049964041 0.049917247 0.049925704 0.04975491 0.049827229
0.049910583 0.04979337 0.049869694 0.049866121 0.049686205 0.049949881
0.05001846 0.049991328 0.049878884 0.04967127 0.049693957 0.049813338
0.049784381 0.049813144 0.049772754 0.049870051 0.049827397 0.049781006
0.049821038 0.049821038 0.049677406 0.049756963 0.049718469 0.049840711
0.049755912 0.049659882 0.049814146 0.049684588 0.049757868 0.049723875
0.04968296 0.049863629 0.049923241 0.049873438 0.049866993 0.049721628
0.049773015 0.049998134 0.04984327 0.04975516 0.050024454 0.05000177
0.049961779 0.049944263 0.0499123 0.04998406 0.049925178 0.050010316
0.050118603 0.049949288 0.049899716 0.050074965 0.050056968 0.050090428
0.05007856 0.050209701 0.050198145 0.050125994 0.05012048 0.049986314
0.050167788 0.050236903 0.050320525 0.050124053 0.05016765 0.050125271
0.050211128 0.050253741 0.050133895 0.050144505 0.050192926 0.050376117
0.050183732 0.050267201 0.050205685 0.050183743 0.050094604 0.050288357
0.050046504 0.049997251 0.050246235 0.050108213 0.050116282 0.050280999
0.05022724 0.050220165 0.050151665 0.050155248 0.050124411 0.050129175
0.050261978 0.05002873 0.050131358 0.05006652 0.0501647 0.050192732
0.050236713 0.050362647 0.050178468 0.050198715 0.050342355 0.050099064
0.050236959 0.050176274 0.05018457 0.050297219 0.050165694 0.05019905
0.050149146 0.050155796 0.050087079 0.050177425 0.050165545 0.049981609
0.050042722 0.049999628 0.050073296 0.050071832 0.050059263 0.050185006
0.050083812 0.0500625 0.050004445 0.049890704 0.049937125 0.049852178
0.04970482 0.049789894 0.049901407 0.049764182 0.04979942 0.049763765
0.049669411 0.049946234 0.050019089 0.049960889 0.049697407 0.049696516
0.049593717 0.04965635 0.049637169 0.04977439 0.049757399 0.049819324
0.049793452 0.049729045 0.049740139 0.049740139 0.049556345 0.049764685
0.04959536 0.049717721 0.049707931 0.049573157 0.0497052 0.049620181
0.049726978 0.049721304 0.049632028 0.04976185 0.049866188 0.049854517
0.0497775 0.049606506 0.049811196 0.049921192 0.049822956 0.049748097
0.049957581 0.049965188 0.049882635 0.049949765 0.049902849 0.050005279
0.049919944 0.050027065 0.050114304 0.049950551 0.049911115 0.050141726
0.050106484 0.050039098 0.050032686 0.050197255 0.050271958 0.050197843
0.050126843 0.049975153 0.050184656 0.050333228 0.050408695 0.050125193
0.050201498 0.050269298 0.050326914 0.050272513 0.050210465 0.050204746
0.050192434 0.050475612 0.05017994 0.050420299 0.050264649 0.050190501
0.0501533 0.050376035 0.050154354 0.050064925 0.050344225 0.050113231
0.050203167 0.050435007 0.050278068 0.050254114 0.050177246 0.050212312
0.050202694 0.050185908 0.050231658 0.049992062 0.050273404 0.050116763
0.050238121 0.050269868 0.050286006 0.050368495 0.050197691 0.050334912
0.050444972 0.050262615 0.050424021 0.050217025 0.050208747 0.050290227
0.050176062 0.050223019 0.050207321 0.050197113 0.050127063 0.050279785
0.050192095 0.049990736 0.050060384 0.04998675 0.050061297 0.050151642
0.050045252 0.050137755 0.050069768 0.05008531 0.049963579 0.04980173
0.049932189 0.049777996 0.049700253 0.049757753 0.049872935 0.049734935
0.049741786 0.04962071 0.049669016 0.049886886 0.049995393 0.049896467
0.049541473 0.049713917 0.049489759 0.049542278 0.049486902 0.049734965
0.049744714 0.049720839 0.04970637 0.049689066 0.049636073 0.049636073
0.049455062 0.049752321 0.049459279 0.049587738 0.049638718 0.049447726
0.049558226 0.049561173 0.049694449 0.049662869 0.049560595 0.049694285
0.049804404 0.049818311 0.049679786 0.04953336 0.049843229 0.04980709
0.049729381 0.049760181 0.049901608 0.049931668 0.049777787 0.049900167
0.04989345 0.049999867 0.049937416 0.050036173 0.050115161 0.049970482
0.049925465 0.050232738 0.050135382 0.050011698 0.050000466 0.050127544
0.050337151 0.050265022 0.050154205 0.04999591 0.050164327 0.0504108
0.050463784 0.050150812 0.050269239 0.050445274 0.050451253 0.050292473
0.050326966 0.050312914 0.05018105 0.050538443 0.050190914 0.050526947
0.050328676 0.050219491 0.050211899 0.050395001 0.050304376 0.050204415
0.050404333 0.050124198 0.050292198 0.050487004 0.050317291 0.050286029
0.050221022 0.050265156 0.050245095 0.05027331 0.050281763 0.049997211
0.050424121 0.050241452 0.050335966 0.050396055 0.050356187 0.050336391
0.050261002 0.050453864 0.050519418 0.050376244 0.050563123 0.050312009
0.050209582 0.050263103 0.050209612 0.050307658 0.050301004 0.050151713
0.050112724 0.050347492 0.050248031 0.050055463 0.05008341 0.049972001
0.050061695 0.050218269 0.05001948 0.050065298 0.050016239 0.050090551
0.04989069 0.049724884 0.049860634 0.049766231 0.04972836 0.049732316
0.049821772 0.049672622 0.049682844 0.049435806 0.049644902 0.04981057
0.049959771 0.049843904 0.049441654 0.049664952 0.049379278 0.049455423
0.049359802 0.049671602 0.049718186 0.049613241 0.049576234 0.049627054
0.049573001 0.049573001 0.049382038 0.049678139 0.049363147 0.049458481
0.049524359 0.049330719 0.049413018 0.049527802 0.04963018 0.049537826
0.049469374 0.049671516 0.049770888 0.049746837 0.049591288 0.049542509
0.049834386 0.049670812 0.049560368 0.049733113 0.049885705 0.049882345
0.049712427 0.049841587 0.049872015 0.049949631 0.049960945 0.050026271
0.050079089 0.050003108 0.049978383 0.050320599 0.050107982 0.050013423
0.049990639 0.050027758 0.050386779 0.050326537 0.050216161 0.050033405
0.050139416 0.050479736 0.050500821 0.05018352 0.050347973 0.050607696
0.050511871 0.050356966 0.050466541 0.050466634 0.050183184 0.050584201
0.050252788 0.050536003 0.050373279 0.050271533 0.05029368 0.050310299
0.050414499 0.050352044 0.050418582 0.050145108 0.050368216 0.050391998
0.050338019 0.050353002 0.050266866 0.050340034 0.050265066 0.05035603
0.050404061 0.050046723 0.050523486 0.05039645 0.05044543 0.050527282
0.050436396 0.050288256 0.050329275 0.050516967 0.050548833 0.050421182
0.050615445 0.050462227 0.050227061 0.050259367 0.050318193 0.050437853
0.050412554 0.050051861 0.050061971 0.050348606 0.050323922 0.050168604
0.050074223 0.049955405 0.05010251 0.050253291 0.050005041 0.049949292
0.049967274 0.050058529 0.049787361 0.049685922 0.049729284 0.049854331
0.049749531 0.049702086 0.049775213 0.049597908 0.049587894 0.049255233
0.049586181 0.049767241 0.049931746 0.049817231 0.04937683 0.049514476
0.049287301 0.049365107 0.049279008 0.049578361 0.049673513 0.049547605
0.049419153 0.049545061 0.049557012 0.049557012 0.049340226 0.049565032
0.049359027 0.049332004 0.049347792 0.049259514 0.049318492 0.049537834
0.049511105 0.049372483 0.049368318 0.04966585 0.049776785 0.049642034
0.049525872 0.049615838 0.049777266 0.049546674 0.049387254 0.049637314
0.049900752 0.049800567 0.049731605 0.049857486 0.049844768 0.049889281
0.049985673 0.049984407 0.04998352 0.050046578 0.050102301 0.050357703
0.050016969 0.050044362 0.050008319 0.049963314 0.050409105 0.050388362
0.050309286 0.050092686 0.050157897 0.050543163 0.050538242 0.050219614
0.05041388 0.05071399 0.050478555 0.050467663 0.050593108 0.050587583
0.050255008 0.050616391 0.050384108 0.050442163 0.050379075 0.050319202
0.050416011 0.050161291 0.05040925 0.050457131 0.050372735 0.050212
0.050398089 0.050176006 0.050323006 0.050425071 0.050313231 0.050449003
0.050267719 0.050408002 0.050518297 0.050121058 0.050551008 0.050498042
0.050538182 0.050622307 0.050507765 0.050238878 0.050372485 0.050548211
0.05052904 0.050452791 0.05056477 0.050642237 0.050271273 0.050352052
0.050516076 0.050567281 0.050516542 0.049974848 0.050061624 0.050307736
0.050391145 0.05027749 0.050019871 0.049965866 0.050170653 0.050253447
0.050015952 0.049792435 0.049960207 0.04999534 0.049701121 0.049695175
0.049599491 0.04999426 0.049732942 0.049661953 0.049751654 0.049555529
0.049423695 0.049183376 0.049510896 0.04976695 0.049921364 0.049777687
0.04932557 0.049285971 0.049251296 0.049270216 0.049262512 0.049479738
0.049611341 0.04952722 0.049243167 0.049473155 0.049531002 0.049531002
0.049342118 0.049481027 0.049435001 0.049234461 0.049114291 0.049220581
0.049270626 0.0495722 0.049358413 0.049212135 0.049271155 0.049630776
0.049807247 0.049547095 0.049495727 0.049687315 0.049704563 0.049481533
0.049290001 0.049490511 0.049903795 0.049703605 0.049821481 0.049970716
0.04982863 0.049888726 0.050005045 0.049900342 0.049855776 0.050080221
0.050260317 0.050318204 0.049914479 0.050103065 0.050068982 0.050004326
0.050402958 0.050458353 0.050407372 0.050171182 0.050250433 0.050577123
0.050594281 0.050271515 0.050465003 0.050727282 0.050400998 0.050607059
0.050652087 0.050577492 0.050425697 0.050634023 0.050517995 0.050334211
0.050355352 0.050334159 0.050583262 0.050022334 0.050310045 0.050479166
0.050267387 0.050336264 0.050338998 0.049943015 0.050270446 0.050430212
0.050372344 0.050532006 0.050256945 0.050422024 0.05053094 0.050214253
0.050530501 0.050493572 0.050564975 0.050658863 0.050559759 0.050214522
0.050389692 0.050604478 0.050474104 0.050523903 0.050457012 0.050796662
0.050343413 0.050554201 0.050768044 0.050670464 0.050585125 0.049990542
0.050184734 0.050282355 0.050419733 0.050309662 0.049968351 0.050019689
0.05022037 0.050214913 0.050041255 0.04965511 0.049982943 0.049938913
0.049686488 0.049750831 0.049554039 0.050071593 0.049690913 0.049621623
0.049722888 0.04955975 0.049207311 0.049294602 0.0494361 0.049776115
0.049918167 0.04968103 0.04929914 0.049074221 0.049291816 0.049202062
0.0493038 0.049397558 0.049520742 0.049504805 0.049065251 0.049426537
0.049428035 0.049428035 0.049404025 0.049474437 0.049509007 0.049173642
0.048888136 0.049175121 0.04921842 0.04957173 0.049227756 0.049097437
0.049191643 0.049543045 0.049826283 0.049515452 0.049511123 0.049687684
0.04966186 0.049489841 0.049296815 0.049346998 0.049856141 0.049633034
0.049926139 0.050109763 0.049841341 0.049984138 0.04999093 0.049796149
0.049753256 0.050067138 0.050352104 0.050235175 0.049894065 0.050173637
0.050180376 0.050166223 0.050401349 0.050541919 0.050477006 0.050237641
0.050395269 0.050557002 0.050662126 0.050375056 0.050496645 0.050658107
0.050347704 0.050764039 0.050584733 0.050470117 0.050627109 0.050651647
0.050576892 0.050324153 0.050349519 0.050307762 0.050755858 0.049962893
0.050224796 0.050376419 0.050148003 0.050433263 0.050181028 0.049810998
0.050195057 0.05033727 0.050421011 0.050496172 0.050255079 0.050388094
0.050431453 0.05031928 0.050487097 0.05039838 0.050498646 0.050652564
0.050588939 0.050245233 0.05039037 0.050714064 0.05043418 0.050615422
0.050418343 0.050859638 0.050490092 0.05074162 0.051006306 0.050740205
0.050609704 0.050130423 0.050404102 0.050302997 0.050397988 0.050246235
0.049988981 0.050086074 0.050210916 0.050134435 0.050050795 0.049622282
0.050005589 0.049928606 0.049751438 0.049842961 0.049629401 0.050001044
0.04965198 0.04961 0.049640365 0.04958095 0.049020823 0.04953691
0.049362916 0.049742989 0.049886484 0.049536381 0.049310923 0.048995111
0.049398717 0.049181011 0.049362451 0.049338229 0.049393602 0.04942159
0.048935231 0.049382363 0.049240004 0.049240004 0.049514491 0.049517937
0.049481165 0.049133062 0.048766382 0.049120001 0.049122687 0.049485616
0.049160372 0.049055345 0.049149226 0.049432836 0.04979581 0.049545337
0.049563084 0.049604341 0.049640339 0.049545452 0.049376767 0.049268775
0.049774259 0.049614459 0.049982086 0.050164949 0.049889382 0.050141975
0.049926233 0.049727879 0.049703553 0.049993802 0.050310973 0.050181355
0.0500126 0.050234579 0.050320573 0.050389547 0.050451092 0.050650038
0.050479177 0.050283138 0.05050749 0.050510027 0.050701197 0.050550111
0.050515708 0.050567262 0.05037158 0.050871968 0.050470009 0.050381452
0.050783124 0.050629351 0.050573424 0.050450671 0.050414547 0.050262392
0.050851598 0.050016019 0.050202396 0.050187603 0.050022453 0.05041917
0.049963027 0.049821045 0.050109185 0.050196137 0.050384142 0.050311137
0.050284334 0.05030654 0.050280035 0.050417602 0.050410777 0.050265141
0.050387703 0.050636664 0.050603077 0.05034228 0.050399218 0.050854247
0.050440494 0.050693341 0.0505156 0.050881017 0.050707147 0.050827004
0.051143002 0.050778084 0.050625008 0.050374374 0.050602861 0.050344337
0.050349385 0.050144628 0.050094794 0.050111085 0.050151818 0.050015837
0.050017297 0.049722981 0.050024245 0.049983364 0.049862277 0.049940739
0.04977851 0.049816195 0.04962818 0.049652193 0.049495541 0.049587693
0.048958775 0.049750391 0.049298752 0.049648922 0.049786665 0.049398627
0.049339525 0.049084365 0.049519181 0.049188837 0.049381103 0.04930158
0.049244713 0.04926268 0.048911035 0.049310412 0.049035236 0.049035236
0.049597625 0.04954249 0.049308598 0.049087454 0.048810426 0.049094003
0.049001403 0.049328428 0.0491395 0.049083725 0.049157064 0.049365532
0.049697563 0.049559277 0.049620297 0.049492657 0.049578566 0.04958979
0.049483132 0.049286839 0.049699411 0.049636003 0.049966674 0.0500848
0.04995361 0.050276667 0.049835872 0.049741011 0.049690388 0.049906489
0.050185703 0.050194219 0.050231643 0.050273903 0.050447848 0.050580077
0.050576616 0.050765019 0.050429024 0.050322119 0.050558023 0.050480004
0.050712012 0.05075901 0.050551623 0.050536256 0.050485022 0.050848905
0.050442655 0.050399788 0.050871607 0.050551206 0.05057754 0.05065513
0.050543182 0.050226718 0.050796662 0.050130084 0.050222423 0.049988113
0.04987875 0.050268639 0.049773008 0.049898185 0.050012119 0.050080039
0.050190095 0.0500555 0.050341103 0.050205372 0.050143927 0.05048858
0.050280914 0.050143 0.050338086 0.05063343 0.050617982 0.050499666
0.050447054 0.050977997 0.050502248 0.050740991 0.050723631 0.050952181
0.050939009 0.050843872 0.051112 0.050794221 0.050689999 0.050659396
0.050681386 0.050353888 0.050307069 0.050089527 0.050219707 0.050091371
0.050093669 0.04988258 0.049960278 0.049913816 0.050060157 0.050090656
0.049969167 0.049983654 0.049906835 0.049646314 0.049610171 0.049720164
0.049354672 0.049594499 0.049058266 0.049794335 0.049259391 0.049513567
0.049595512 0.04930374 0.049346011 0.049265951 0.049581014 0.049186457
0.049331646 0.049296163 0.049118545 0.049079031 0.04899909 0.049189016
0.048900422 0.048900422 0.049560122 0.04949801 0.049059179 0.049007058
0.048996814 0.049114037 0.048912384 0.049175315 0.04911812 0.049154583
0.049202234 0.049372204 0.049558602 0.049474649 0.049648833 0.049437553
0.04943914 0.049568832 0.0495723 0.049384288 0.049654018 0.049674097
0.04990508 0.049905695 0.049995609 0.050309997 0.049767047 0.049826831
0.04969319 0.049872592 0.050104622 0.050255936 0.050439142 0.050305624
0.050527941 0.050680283 0.050742604 0.050846383 0.050412547 0.050382249
0.05059633 0.050504033 0.050740033 0.050937042 0.05062044 0.050630707
0.050633442 0.050705973 0.050525278 0.050561015 0.050892007 0.050471846
0.050631028 0.050804745 0.050667565 0.050223291 0.050589178 0.050210036
0.050229419 0.049835179 0.049738955 0.050012428 0.049694002 0.049907196
0.049912091 0.049980089 0.049861092 0.049856212 0.050372597 0.050123088
0.050064784 0.050506219 0.050133429 0.050080884 0.050405558 0.050644394
0.050643273 0.050686058 0.05056496 0.051040795 0.05062326 0.050763629
0.050958619 0.051085178 0.051136002 0.050862115 0.050980061 0.050794549
0.050833087 0.05089616 0.050640743 0.05032428 0.05028731 0.050112318
0.050284017 0.050098967 0.050085131 0.04976923 0.049940724 0.050117712
0.050119776 0.050209049 0.050031573 0.049920846 0.049951933 0.049596101
0.049582407 0.049752813 0.049306538 0.04963728 0.049260028 0.04966234
0.049249168 0.049364891 0.049332201 0.049248412 0.049320005 0.04940483
0.049535193 0.049142104 0.049240999 0.049294863 0.049080022 0.048950978
0.049129367 0.049026519 0.048873547 0.048873547 0.049410023 0.049332969
0.048876703 0.048910871 0.049197212 0.049141653 0.048884347 0.049101654
0.049072385 0.049232081 0.049249962 0.049426597 0.049429104 0.049307033
0.049633034 0.049478456 0.049268816 0.049470596 0.049599592 0.049499881
0.049621671 0.049718581 0.049838681 0.049709368 0.049989048 0.050223738
0.049736839 0.049925365 0.049731456 0.049916901 0.050131124 0.050323706
0.050541211 0.050356619 0.050573651 0.050699342 0.050865512 0.050880861
0.050485078 0.050521456 0.050668113 0.050606005 0.050823051 0.051052492
0.050723091 0.0508474 0.05075093 0.050538875 0.050657786 0.050798643
0.05086308 0.050448127 0.050707575 0.050803661 0.050723799 0.050263941
0.05030477 0.050192568 0.050158162 0.04976023 0.049643904 0.04971401
0.049712006 0.049789023 0.049791984 0.049829651 0.049519807 0.049771294
0.050288849 0.050071795 0.050057825 0.050467655 0.050056968 0.050137721
0.050545201 0.050656173 0.050685875 0.05085209 0.050762802 0.051046655
0.050806556 0.050817002 0.051122379 0.051196601 0.051258087 0.050940573
0.050882198 0.05081195 0.051012568 0.051005829 0.05057 0.050317153
0.050294541 0.050187793 0.050282151 0.050195903 0.050131496 0.049729373
0.05001631 0.050268091 0.050162908 0.050271399 0.050016545 0.049766712
0.04992228 0.049662951 0.049544085 0.049718745 0.049383629 0.049706165
0.049467918 0.049458001 0.049250681 0.049226593 0.049059797 0.049205929
0.049280375 0.049411722 0.049395032 0.049057513 0.049150161 0.049264584
0.049132597 0.048944347 0.049189262 0.048865147 0.048911888 0.048911888
0.049225029 0.049064089 0.048829302 0.0488583 0.049264457 0.049121689
0.048896033 0.049110208 0.049026981 0.049289547 0.049268194 0.049474299
0.049339857 0.049171962 0.049584761 0.049545158 0.049168717 0.049348257
0.049539622 0.049578354 0.049592279 0.049761951 0.049787574 0.049560722
0.049946852 0.050056916 0.049730014 0.049969688 0.049845938 0.050001677
0.050200731 0.050380688 0.050537147 0.05045528 0.050631355 0.050689053
0.050892606 0.050884191 0.050644837 0.050755743 0.050803527 0.050771032
0.050963014 0.051126283 0.050865106 0.051106796 0.05082703 0.050451431
0.050763726 0.050997786 0.050812781 0.0504952 0.050742351 0.050659962
0.050693206 0.050340708 0.050052635 0.05008233 0.04998998 0.049715001
0.049623448 0.049443003 0.049718056 0.049603105 0.049621984 0.04959346
0.049290448 0.049754772 0.050030857 0.050016139 0.050113946 0.050396867
0.050114196 0.050340258 0.050664552 0.050667945 0.050754637 0.050960913
0.051009558 0.051057696 0.051040694 0.050961047 0.051201019 0.051190376
0.051297188 0.051084463 0.050898228 0.050889101 0.051150411 0.050976671
0.050567705 0.050411038 0.050337363 0.050287958 0.050294537 0.050349727
0.050199982 0.049816057 0.05018568 0.050324921 0.050136488 0.050214652
0.049925275 0.049627382 0.049852144 0.049756709 0.04951388 0.049663015
0.049521599 0.049726918 0.04961111 0.049293537 0.049236611 0.049123634
0.048864197 0.04916399 0.049236301 0.049279071 0.049223155 0.048974644
0.049082 0.049192898 0.049192511 0.049034551 0.049112014 0.048750132
0.048961379 0.048961379 0.049074121 0.048799839 0.048862796 0.048888423
0.049146563 0.049029272 0.048909176 0.049130857 0.04901766 0.049316552
0.049259394 0.049471885 0.049275484 0.049171247 0.049517971 0.049513701
0.049186554 0.049291056 0.049411658 0.049601216 0.049577549 0.049779262
0.049749888 0.049481213 0.049909562 0.049870506 0.04972503 0.049949124
0.050038125 0.050075434 0.050198518 0.05043491 0.050507423 0.050608695
0.050725397 0.050691117 0.050848093 0.050884038 0.050856806 0.051023152
0.050996687 0.050967038 0.051123999 0.051198218 0.0510533 0.051312439
0.050907273 0.050509069 0.050805669 0.051093418 0.050781678 0.050587609
0.050710481 0.050467901 0.050598338 0.050412357 0.049909364 0.049933564
0.049772441 0.049611129 0.049644202 0.049262181 0.049601234 0.049415581
0.04939983 0.049312361 0.049206395 0.049724549 0.049649764 0.049916353