# vtk DataFile Version 3.0
axinsert(project(permute(???,2,0,1),0,L2),2)
ASCII
DATASET STRUCTURED_POINTS
DIMENSIONS 128 256 1
ORIGIN 0 0 0
SPACING 1 1 1
POINT_DATA 32768
SCALARS nrrd64545 float
LOOKUP_TABLE default
0.050031018 0.050005067 0.049975 0.049988016 0.049973015 0.049962044
0.049983434 0.05001023 0.050009225 0.050028145 0.050015002 0.050001025
0.049982037 0.050031174 0.05000902 0.049970198 0.049991067 0.050039105
0.05004004 0.050006017 0.049941026 0.049933344 0.050010331 0.050030168
0.049995001 0.049998615 0.050001126 0.050044656 0.050009079 0.049976569
0.050012015 0.04998409 0.050026372 0.050003007 0.049957186 0.05004818
0.050059009 0.049943011 0.049946412 0.04999518 0.050012179 0.049982257
0.050033458 0.049968094 0.049970973 0.050023191 0.050000228 0.049991809
0.050019223 0.050035235 0.050026063 0.050004151 0.050003193 0.050038025
0.049993001 0.050010014 0.050015002 0.050010011 0.050017077 0.049917046
0.049971115 0.050051067 0.050009031 0.049971018 0.049969014 0.049990218
0.049994234 0.050019097 0.049992222 0.050001532 0.050001003 0.049987681
0.050024316 0.05003627 0.049974002 0.049981326 0.050026216 0.049959019
0.049964279 0.0500113 0.050033085 0.049966075 0.050008167 0.050030012
0.050031144 0.049985085 0.04993917 0.049983237 0.050022297 0.050040316
0.049939007 0.049987633 0.050055001 0.050041419 0.050035052 0.049991999
0.050032027 0.049951166 0.049996022 0.050037 0.049977079 0.050007004
0.049991209 0.05000202 0.050028082 0.049987059 0.049959064 0.049995061
0.050032075 0.049957 0.049982104 0.050053 0.050008066 0.049984023
0.050014023 0.049961999 0.049996104 0.050002038 0.049988069 0.050027005
0.050007008 0.049975023 0.05000402 0.04999204 0.050004192 0.050001051
0.050027438 0.050027438 0.050085042 0.050062001 0.049902003 0.050010048
0.0499762 0.04990701 0.049928144 0.049959082 0.050059024 0.050056048
0.050016068 0.050026085 0.049982999 0.049989033 0.049992219 0.049972102
0.050044101 0.049974002 0.050042644 0.049998067 0.04989982 0.049939081
0.050031144 0.050073225 0.04992203 0.04994173 0.050003327 0.050119605
0.050037231 0.049939521 0.050039101 0.049978659 0.050045222 0.050014347
0.049944345 0.0500503 0.050068509 0.049870737 0.049909644 0.050025348
0.049971551 0.049973629 0.050035331 0.049958162 0.049927231 0.050043147
0.050010227 0.050001282 0.050022174 0.050074261 0.050013307 0.049969334
0.050049666 0.050083812 0.050006986 0.050037693 0.050019495 0.04998792
0.050036855 0.049947176 0.049935058 0.05005813 0.050020363 0.049938705
0.049933262 0.049954835 0.05001374 0.049988482 0.049908206 0.050070435
0.049993634 0.049923725 0.050059866 0.050104018 0.049989652 0.04995
0.050116785 0.049967319 0.049915403 0.050042234 0.050075237 0.049996257
0.050008029 0.050052214 0.050033126 0.049950227 0.049868271 0.049986262
0.049973086 0.050041694 0.049938284 0.050013315 0.050129998 0.050066318
0.05009602 0.050046097 0.050028015 0.049944278 0.049944174 0.050091349
0.049967106 0.050026134 0.05005803 0.049998026 0.049993001 0.049936
0.049941014 0.049998 0.050029006 0.049964026 0.050025046 0.050082088
0.049983025 0.050008018 0.049999125 0.049893007 0.050024018 0.050016012
0.049937028 0.050023004 0.05006 0.050007027 0.05002429 0.049901001
0.049918007 0.050026175 0.050091051 0.050091051 0.050039046 0.050079077
0.049914069 0.050050005 0.050020002 0.049903005 0.049894024 0.049926043
0.050056003 0.050002147 0.050039239 0.050065037 0.049953111 0.049898181
0.049984429 0.049986187 0.050056644 0.049930356 0.049996592 0.049983371
0.049906731 0.050018568 0.05003158 0.050077654 0.049884368 0.04989367
0.049965546 0.05006713 0.050063346 0.050002083 0.050025649 0.049943119
0.050034344 0.050013177 0.049986325 0.050012991 0.04999024 0.049921263
0.049953796 0.050050095 0.049950723 0.04998605 0.049960785 0.050005294
0.050008334 0.050005089 0.049999326 0.049980469 0.050037682 0.050035398
0.049993083 0.049924091 0.050045405 0.050028697 0.050046284 0.050066162
0.049998943 0.049954288 0.05000646 0.050118804 0.049931902 0.049962189
0.050067615 0.050011553 0.04993682 0.049874742 0.05002173 0.049941879
0.049874958 0.050096646 0.04994395 0.049933463 0.050022632 0.050079022
0.050067186 0.049962025 0.050136045 0.050077047 0.050010961 0.050066598
0.050024576 0.050070211 0.050003268 0.050006375 0.050028253 0.049914025
0.049933467 0.050025683 0.04994024 0.04996556 0.050037399 0.050093137
0.050071083 0.050030433 0.050091181 0.050104529 0.049989045 0.050042536
0.049951017 0.050011456 0.050047033 0.050005063 0.05012909 0.049964003
0.04995425 0.049971003 0.04997303 0.050009001 0.049941018 0.050002065
0.05010502 0.050032001 0.049951069 0.050045028 0.049964003 0.04990809
0.050055005 0.050036028 0.049914002 0.04998105 0.050115 0.050099999
0.04998114 0.049886063 0.049879327 0.050009053 0.050085157 0.050085157
0.049964059 0.050044078 0.049989253 0.050091002 0.049997058 0.049863059
0.04987818 0.04996806 0.049999047 0.049914248 0.050069362 0.050084304
0.049930543 0.049875241 0.049972512 0.049953505 0.049987871 0.049985137
0.050012596 0.049970094 0.049880777 0.049988281 0.050018076 0.050099492
0.049923807 0.049893931 0.049933754 0.04998599 0.050040688 0.050057743
0.050020188 0.04988765 0.050030846 0.050009865 0.049976852 0.050043017
0.050008468 0.049962554 0.049947109 0.050025403 0.049985562 0.049967095
0.049901627 0.050033003 0.050088238 0.050011326 0.049987845 0.049917545
0.050014559 0.050007381 0.050058205 0.049945325 0.049968537 0.049977385
0.050072476 0.050081141 0.050009411 0.049917948 0.049967103 0.050158877
0.049917877 0.049940791 0.050097153 0.05004989 0.049905267 0.049846362
0.050008137 0.049962368 0.049926557 0.050061587 0.04990913 0.04997753
0.050005589 0.050034571 0.050098345 0.049992342 0.050099678 0.050112128
0.050122526 0.050094619 0.049982045 0.050068304 0.04999508 0.050060339
0.050088037 0.04989234 0.04994674 0.050043304 0.049991671 0.049976785
0.050082292 0.050124444 0.050040159 0.050019644 0.050059196 0.050124846
0.050007187 0.050063513 0.049981203 0.049983323 0.050102174 0.049976144
0.050120339 0.049944162 0.049973331 0.050031077 0.049951095 0.050021131
0.049958073 0.049991999 0.050116066 0.050025012 0.049949083 0.050067
0.04994702 0.049890056 0.050054085 0.050056044 0.049932029 0.050000999
0.050122999 0.050117068 0.049950998 0.049956083 0.049914196 0.049979012
0.050039142 0.050039142 0.049892027 0.049988009 0.050027262 0.05011702
0.049937304 0.049840264 0.049890235 0.049995188 0.049974259 0.049879242
0.050026312 0.050027803 0.049969006 0.049907334 0.049911574 0.049929801
0.049934853 0.049994387 0.050003 0.049949866 0.049880181 0.049955931
0.050010562 0.050114013 0.049979437 0.0499033 0.049951386 0.04992903
0.049963858 0.050071254 0.050042123 0.049863763 0.050004154 0.050016247
0.049970064 0.050063215 0.050045762 0.049966767 0.049971931 0.049975354
0.050006602 0.049959343 0.049872465 0.050036591 0.050113186 0.050047625
0.049988512 0.049870778 0.049941994 0.049971819 0.050115708 0.050014254
0.049912836 0.049937006 0.050065283 0.050080311 0.050024722 0.049891256
0.049906109 0.050139721 0.049944974 0.0499379 0.050055105 0.05000804
0.049895898 0.049890786 0.050013609 0.050000489 0.049953166 0.050044131
0.049949549 0.049991038 0.050030272 0.050004411 0.050084699 0.050026048
0.050057091 0.050089642 0.050178595 0.050111141 0.049962167 0.050052304
0.050016303 0.050139759 0.050161768 0.049946871 0.049944386 0.050030582
0.050031506 0.050053257 0.050110489 0.050133966 0.050031357 0.050021935
0.050051246 0.050108757 0.050051436 0.050028421 0.050009735 0.050015274
0.050110474 0.04995437 0.050112594 0.049973376 0.049987301 0.050062217
0.049939152 0.050029207 0.050054118 0.050001007 0.050076071 0.050017014
0.049985096 0.05009101 0.049903046 0.049853027 0.050063074 0.050064001
0.04997509 0.050026026 0.050055023 0.050094116 0.049976066 0.050033007
0.049934011 0.049988002 0.049999058 0.049999058 0.049859006 0.049930017
0.049979173 0.0500701 0.049882699 0.049881391 0.049904209 0.049962301
0.049983598 0.049898278 0.049942408 0.049947083 0.050027028 0.049955528
0.049867727 0.04990479 0.04989804 0.04995935 0.049957611 0.049937155
0.049883571 0.049930174 0.050016839 0.050107077 0.050023124 0.049896564
0.049977288 0.0499244 0.049888074 0.050029412 0.050081257 0.049882915
0.049974483 0.050021209 0.049982499 0.050071932 0.050063282 0.049938045
0.050009906 0.049942531 0.049998261 0.04996774 0.049883924 0.050047345
0.050099544 0.050079849 0.049977027 0.049863279 0.049900915 0.049937461
0.050106484 0.050051212 0.04989028 0.049936499 0.050039098 0.050044078
0.05001507 0.0498899 0.049844205 0.050096199 0.049977411 0.049935602
0.05000253 0.049934633 0.04991759 0.049940918 0.050025579 0.049997564
0.049959581 0.050033268 0.050007071 0.05000237 0.050070424 0.050004635
0.050037444 0.050043799 0.050047908 0.050073337 0.050176095 0.050124846
0.049977873 0.050051115 0.05005677 0.050180115 0.050197825 0.050041009
0.049992725 0.05001872 0.050042428 0.050137669 0.050132181 0.050152417
0.050048869 0.050047077 0.050094485 0.050068431 0.050082818 0.049996328
0.050025936 0.050034259 0.050078835 0.049954541 0.05011471 0.050020531
0.05001137 0.050088268 0.049949139 0.050038178 0.050129123 0.05002002
0.050047051 0.050006036 0.050021093 0.050097 0.049867135 0.04986801
0.050099012 0.05004302 0.049995068 0.050040048 0.049970042 0.050078053
0.050039049 0.05007102 0.049928017 0.050023008 0.049971011 0.049971011
0.049868006 0.049882039 0.049885109 0.049979139 0.049842749 0.049957361
0.049915213 0.049893264 0.049983751 0.049920376 0.049866673 0.049909066
0.050066806 0.049963769 0.049859058 0.049876884 0.04985147 0.049911581
0.049913261 0.049947176 0.049886879 0.049915083 0.050027944 0.050074048
0.050048742 0.049880777 0.049978927 0.049951948 0.049847387 0.049954336
0.050099839 0.049937297 0.04996955 0.050013117 0.050003819 0.050079778
0.050038762 0.049902607 0.050037317 0.049937163 0.049985364 0.049984295
0.049927983 0.050065506 0.050057638 0.050099358 0.049942546 0.049888078
0.049920943 0.049914278 0.050038226 0.050043914 0.049885597 0.049962822
0.050016116 0.049987357 0.049965307 0.049885146 0.049814682 0.050044667
0.04998206 0.049936067 0.049982261 0.049878415 0.049931522 0.049963199
0.050030429 0.049942095 0.049978767 0.050014205 0.050019678 0.050037555
0.050089616 0.05001324 0.049992744 0.050071031 0.050089266 0.050079439
0.050144117 0.050128225 0.050022155 0.050054993 0.050107975 0.05019854
0.050182045 0.050118163 0.050089456 0.050053086 0.050043862 0.050195865
0.05015102 0.050176587 0.05008864 0.050089054 0.050179921 0.050033242
0.050086204 0.050005294 0.050031856 0.050033234 0.050037842 0.049978424
0.050109558 0.050051481 0.050048415 0.050138235 0.049967084 0.050040126
0.050144117 0.05004314 0.050056029 0.049995065 0.050029054 0.050073057
0.04988417 0.049936999 0.050135002 0.050013013 0.04999901 0.050043032
0.049915005 0.050086003 0.050094999 0.050061025 0.049914014 0.05006402
0.049941007 0.049941007 0.049889013 0.049847003 0.04980009 0.04989814
0.049810499 0.050008312 0.049935296 0.04983018 0.049953729 0.049911465
0.04981301 0.049919944 0.050075736 0.049917024 0.049848516 0.049847376
0.049800042 0.049867056 0.049895804 0.049972247 0.049901329 0.049913991
0.050026301 0.050019301 0.050060526 0.049877279 0.049959358 0.049979635
0.049846001 0.049897414 0.0500848 0.050002906 0.049990542 0.049997393
0.050021872 0.050076067 0.04997617 0.049886361 0.050054222 0.049941085
0.049983203 0.050002001 0.049974877 0.050080217 0.050000716 0.050092325
0.049910244 0.049929813 0.049976267 0.049909636 0.049953274 0.050019432
0.049896795 0.049988944 0.049998451 0.04992947 0.049894668 0.049858499
0.049813412 0.049989611 0.049956873 0.049923845 0.049981628 0.049857087
0.049921919 0.049954619 0.050023638 0.049871087 0.050012957 0.049992923
0.049983967 0.050069243 0.050087672 0.050012235 0.049985133 0.050134704
0.050146386 0.050087199 0.050123427 0.050126277 0.050064217 0.050061297
0.050171718 0.050238322 0.0501501 0.05015273 0.050187573 0.05014975
0.050068755 0.050219849 0.050172422 0.050191503 0.0501322 0.050138976
0.050272319 0.050019283 0.050069381 0.050051384 0.05004273 0.050040208
0.050022565 0.050010193 0.050098304 0.050056271 0.050075315 0.050199173
0.049987074 0.050026085 0.050125126 0.050076168 0.050083019 0.049987059
0.050023023 0.050043061 0.049931079 0.050011002 0.050147008 0.049998
0.050011005 0.050045006 0.049898017 0.050098002 0.05011303 0.050030001
0.049922001 0.050088018 0.049902011 0.049902011 0.049890038 0.049824018
0.0497481 0.049849145 0.04978431 0.050005294 0.04996153 0.04979419
0.049902767 0.049871627 0.049779382 0.049950901 0.05005607 0.049847376
0.04980997 0.049817216 0.049769673 0.049833499 0.049898233 0.049989481
0.049921051 0.049911249 0.050001193 0.049957018 0.050055593 0.049897373
0.049941886 0.049987637 0.049870029 0.049885977 0.050048951 0.050055787
0.05001599 0.049986362 0.050034121 0.050056078 0.049913704 0.049900003
0.050059155 0.049943127 0.049989071 0.050018881 0.050001714 0.050085336
0.049948823 0.050055232 0.049903788 0.049982097 0.050025579 0.049916416
0.049883485 0.049996775 0.049923029 0.049997058 0.049979985 0.04987473
0.049833305 0.049824264 0.049813103 0.049936537 0.049913522 0.049886119
0.049972251 0.049863011 0.049897134 0.049926937 0.050002255 0.049827106
0.050033584 0.049979884 0.049939293 0.050066933 0.05008617 0.050005708
0.050016701 0.050216001 0.050172988 0.050084785 0.050139192 0.050143644
0.050083954 0.050086979 0.050240602 0.050303712 0.050146624 0.050156012
0.050254595 0.050279509 0.050135594 0.050227787 0.050197344 0.050196357
0.050168153 0.050190911 0.050327316 0.050025601 0.050054204 0.050113637
0.050078571 0.0500702 0.050038271 0.050044082 0.050079092 0.050051138
0.050076127 0.050230119 0.05000712 0.050012048 0.050107125 0.050115097
0.050108019 0.049989033 0.050030004 0.050034009 0.049965005 0.050050009
0.050134007 0.050005998 0.050025038 0.050058 0.049913086 0.050095025
0.050083037 0.050005015 0.049956005 0.050095011 0.049864005 0.049864005
0.049869064 0.049808044 0.049724124 0.049821131 0.049758267 0.049951322
0.049973935 0.049780395 0.049843021 0.049818013 0.049765781 0.049961101
0.050010972 0.049799997 0.049749523 0.049778208 0.04977246 0.049813978
0.049899828 0.049986057 0.049930103 0.049897101 0.049957518 0.049905248
0.050031725 0.049936134 0.049934696 0.049973261 0.049904548 0.049906299
0.050012954 0.050089158 0.050025329 0.049991187 0.050044052 0.050033882
0.049897403 0.049933534 0.050043479 0.049953319 0.049999114 0.050038982
0.050016712 0.050076403 0.049926084 0.050009489 0.049922828 0.050035894
0.050033629 0.049923271 0.04984355 0.049969919 0.04995231 0.049991265
0.04995352 0.04981916 0.049795948 0.049797017 0.049799632 0.049891707
0.049866959 0.049822185 0.049935441 0.049865171 0.049874026 0.04989709
0.049967036 0.049812932 0.050014488 0.049977459 0.04992288 0.050044317
0.050091997 0.050002784 0.050061211 0.050269928 0.050159197 0.050085749
0.050182946 0.050196633 0.050100427 0.050142385 0.050301164 0.050371356
0.050192468 0.050159357 0.05029897 0.050395064 0.050236691 0.050245874
0.050227106 0.050211295 0.050197624 0.050240848 0.050324954 0.050044097
0.050053749 0.050168939 0.050145369 0.050120231 0.05006808 0.050084073
0.050065 0.05004609 0.050076004 0.050204054 0.050027139 0.05002201
0.050097056 0.05014503 0.05012501 0.050008003 0.050057005 0.050047014
0.049978025 0.050057035 0.050113034 0.050027005 0.050029084 0.050073005
0.049947117 0.050064065 0.050025005 0.049986009 0.049995001 0.050087005
0.049853016 0.049853016 0.049839064 0.049789019 0.049704157 0.049794104
0.049720336 0.049859408 0.04994753 0.049779918 0.049784541 0.049772698
0.049766134 0.049927711 0.049947262 0.049791079 0.049692374 0.049732298
0.049791548 0.049802996 0.049892884 0.049968306 0.049922574 0.049879633
0.049909066 0.049874946 0.049990792 0.049976449 0.049929984 0.049936667
0.049940526 0.049931552 0.049986891 0.050106246 0.050018672 0.050011624
0.05005588 0.050035272 0.049940407 0.049974404 0.050005302 0.04997766
0.050011538 0.050060295 0.050043121 0.05005521 0.049943559 0.049989343
0.04995257 0.050084583 0.049996592 0.049926795 0.049834538 0.049925767
0.049972542 0.049978476 0.049918901 0.049766533 0.049778223 0.049775034
0.049771018 0.04985318 0.0498293 0.049747288 0.049867008 0.049838506
0.049853962 0.04988024 0.049919587 0.049811698 0.049960826 0.049977433
0.049937267 0.050028376 0.050103802 0.050007824 0.050089549 0.050271686
0.050138459 0.050104003 0.050235026 0.050274499 0.050144754 0.050214779
0.05034614 0.050419267 0.050272882 0.050192483 0.05034326 0.050469097
0.050341886 0.05028804 0.050268907 0.050253283 0.050232057 0.050288733
0.050282538 0.05007026 0.050068285 0.050204903 0.050225172 0.050178237
0.050097004 0.050129093 0.050074071 0.050041039 0.050099093 0.050129998
0.050043039 0.050056007 0.050085999 0.050156999 0.050139003 0.050039012
0.05009206 0.050069086 0.049985137 0.050057128 0.05009516 0.050039064
0.050019167 0.050074033 0.049977113 0.050009094 0.049971007 0.049971003
0.050013024 0.050067004 0.049880084 0.049880084 0.049811043 0.049759999
0.04966519 0.049759127 0.049660478 0.049739592 0.049876206 0.049781721
0.049735241 0.049751494 0.04976251 0.049854752 0.049872488 0.049795602
0.049651682 0.049685646 0.04979803 0.049792908 0.049877465 0.049942408
0.049909584 0.049868826 0.04986896 0.049865071 0.049938146 0.049996182
0.049922075 0.049887653 0.049971927 0.049949694 0.049973413 0.050107058
0.0500108 0.050044216 0.050070565 0.050069869 0.050019037 0.050013103
0.049966782 0.050015118 0.050025582 0.050076697 0.050092164 0.050039079
0.049994212 0.050005503 0.049985528 0.050120629 0.049941834 0.04992884
0.049847774 0.04987346 0.049976688 0.049962562 0.049881067 0.049722612
0.049763136 0.049745258 0.049727276 0.04981479 0.049803704 0.049678706
0.049770229 0.049777895 0.049837247 0.049873658 0.049860869 0.049809709
0.049902286 0.049967088 0.049961265 0.050026029 0.050113492 0.050023843
0.05009947 0.05024121 0.050148033 0.050150756 0.050287127 0.050356157
0.050229836 0.050282013 0.050381444 0.050447673 0.050367467 0.050269917
0.050397642 0.05050955 0.050427817 0.050347 0.050320663 0.050325155
0.05028161 0.050337497 0.050238229 0.050108802 0.050102025 0.050210383
0.050289031 0.050233144 0.050127033 0.050182033 0.050110325 0.050049011
0.050134435 0.050045084 0.05005604 0.050098144 0.05008221 0.050156165
0.050147194 0.050066169 0.050114285 0.050085217 0.04999936 0.050066318
0.050079439 0.0500312 0.050006282 0.050052159 0.049981117 0.049937122
0.049938019 0.049964048 0.050001036 0.050044011 0.049926113 0.049926113
0.049782034 0.049716007 0.049600255 0.049714275 0.049589679 0.04960791
0.049776748 0.04977854 0.049700975 0.049747195 0.049739163 0.049764089
0.049794484 0.049782299 0.049623482 0.049642328 0.049776938 0.049781632
0.049861562 0.049907234 0.049900282 0.049864709 0.049841683 0.049869783
0.049881514 0.049987342 0.049912345 0.049843948 0.049990773 0.049965445
0.049970198 0.050091434 0.050020315 0.050077818 0.050082885 0.050124515
0.050098706 0.050054848 0.049954072 0.05005873 0.050043445 0.050089106
0.050149944 0.050049424 0.050058093 0.050043441 0.050023057 0.050145291
0.049909569 0.049928714 0.04986956 0.049839266 0.049967848 0.049947631
0.049848188 0.049687419 0.049736042 0.049702533 0.049675442 0.049771287
0.049778119 0.049619559 0.049658436 0.049705125 0.049815625 0.049860395
0.049793046 0.049800847 0.049868796 0.049940851 0.049978383 0.050020095
0.050115105 0.05005547 0.050110843 0.050214231 0.05019645 0.050224114
0.050340485 0.050428305 0.050344501 0.050336622 0.050425421 0.050468933
0.05045747 0.050385691 0.050451022 0.050537616 0.050493237 0.050409529
0.050376203 0.050414801 0.050349262 0.050385177 0.050223049 0.050167158
0.05016106 0.050191998 0.050308026 0.050283004 0.050167236 0.050247055
0.050163776 0.050071362 0.050160047 0.049983505 0.050070573 0.050137632
0.050094947 0.050153844 0.050140936 0.050070662 0.0501098 0.050089493
0.050015766 0.050077643 0.050058801 0.050000425 0.049999412 0.050016407
0.049957167 0.049862202 0.049926002 0.049960151 0.049972009 0.050024044
0.049951043 0.049951043 0.049735043 0.049662143 0.04952538 0.049661655
0.049524952 0.049477354 0.049672078 0.049762174 0.04967577 0.049734879
0.049691521 0.049679633 0.049719729 0.049735997 0.049595851 0.049601328
0.049728401 0.049765807 0.049848359 0.049860626 0.04989079 0.049857542
0.049822621 0.049879558 0.049827497 0.049961254 0.049908061 0.049825672
0.049998336 0.049984615 0.049977507 0.050063275 0.05004707 0.050108895
0.050094645 0.050175495 0.050157625 0.050103545 0.04998339 0.050106749
0.05007026 0.050103586 0.050196413 0.050095391 0.05012235 0.050084177
0.050069205 0.050161608 0.049918823 0.049923968 0.04988987 0.049844529
0.049952175 0.049934879 0.049828503 0.049659263 0.049691159 0.049654823
0.049623545 0.049718551 0.049734581 0.049566846 0.049553685 0.049637947
0.049776636 0.049824409 0.049726374 0.049785685 0.049864553 0.049905695
0.049992271 0.049997687 0.050106607 0.050111376 0.050144933 0.050217722
0.050268769 0.050312791 0.050403398 0.050494589 0.050469588 0.050387241
0.050489593 0.050494105 0.050537445 0.050517388 0.050496273 0.050581589
0.050550267 0.050471772 0.050429538 0.050509289 0.050431017 0.050427001
0.050250012 0.050250072 0.05023545 0.050177593 0.05027841 0.050332304
0.05022084 0.050312847 0.050218593 0.050100543 0.050168008 0.04996356
0.050086986 0.050167739 0.050122309 0.050157174 0.050115317 0.050044626
0.050078638 0.05008103 0.05002936 0.050075162 0.050030153 0.049954802
0.049998526 0.049983773 0.049919292 0.049799405 0.049919046 0.04995029
0.049940016 0.050005104 0.049926002 0.049926002 0.049658094 0.049595565
0.049458634 0.049604256 0.049477369 0.049364932 0.049579311 0.049721707
0.049644794 0.049686875 0.049618926 0.049616631 0.04965486 0.049665987
0.049561944 0.049563747 0.049661551 0.04973926 0.049831185 0.04980576
0.049868274 0.04984061 0.049807761 0.049881734 0.049785338 0.049929176
0.049913213 0.049836341 0.050002176 0.050006323 0.049990144 0.050035924
0.050083548 0.05013831 0.050108984 0.050209358 0.050194561 0.050159983
0.050046761 0.050160594 0.05011306 0.050128512 0.050223485 0.050169844
0.050185308 0.050122388 0.05012494 0.050174389 0.049961437 0.049921878
0.049908333 0.049888313 0.049944714 0.049923308 0.049824115 0.049640398
0.049635474 0.049614128 0.049575616 0.049655747 0.049661145 0.049521331
0.049472935 0.049575485 0.049710914 0.04975839 0.049672943 0.049759869
0.049869653 0.049877204 0.05001685 0.049971234 0.050093837 0.050188635
0.050207384 0.050256763 0.050351493 0.050408486 0.050482102 0.050564814
0.050586261 0.050447151 0.050574154 0.05053683 0.050610676 0.050644442
0.05054234 0.050654691 0.050613377 0.050533157 0.050485045 0.050599001
0.05051611 0.050462257 0.050313313 0.05034899 0.050319303 0.050187331
0.050237659 0.050376896 0.050280303 0.050365992 0.050260033 0.050129786
0.050160587 0.049984626 0.050097346 0.050176647 0.050145134 0.050159894
0.050077938 0.049998082 0.050026786 0.050057933 0.050034154 0.050052971
0.049996592 0.049895465 0.049989671 0.0499622 0.049880482 0.049759746
0.049897261 0.049928408 0.049906109 0.049982149 0.049852017 0.049852017
0.049554177 0.049513113 0.049406018 0.049545899 0.049439959 0.04927469
0.049500663 0.049646456 0.049591307 0.049595617 0.0495263 0.049572475
0.049601223 0.049588807 0.049522854 0.049531855 0.049585626 0.049700189
0.049799193 0.049748991 0.049830895 0.049815968 0.049792904 0.049870286
0.049757663 0.049901184 0.049922604 0.049867444 0.050010756 0.050028048
0.050002735 0.050021984 0.050113436 0.050171811 0.050137475 0.050231792
0.050222233 0.050218254 0.050130032 0.050219607 0.050176814 0.050171375
0.050240133 0.050256494 0.05025214 0.050164603 0.050185181 0.050194293
0.05001919 0.049931306 0.049932458 0.049953297 0.049953319 0.049908802
0.049826842 0.04963582 0.049581777 0.049585424 0.049529623 0.049579181
0.049559809 0.049485646 0.049416415 0.049506091 0.049623828 0.049672052
0.04964152 0.049722478 0.049854737 0.049865283 0.05006009 0.049965248
0.050087664 0.050270803 0.050286565 0.050328359 0.050441384 0.050510611
0.05057881 0.050644454 0.05068988 0.050521336 0.050670657 0.050606072
0.050685912 0.050760794 0.050611451 0.050753113 0.050689001 0.05060003
0.050552189 0.050679419 0.050596815 0.05050027 0.05040336 0.050442953
0.050402828 0.050229851 0.05023117 0.050414301 0.050332051 0.050396543
0.050283432 0.050159134 0.050153144 0.050030936 0.050092489 0.05015735
0.050144289 0.050147835 0.050044429 0.049952019 0.049962193 0.050023317
0.050031211 0.050017182 0.049964342 0.049822446 0.049960025 0.049946602
0.04984476 0.049740054 0.049852617 0.049887456 0.049863249 0.049942125
0.049763031 0.049763031 0.049433284 0.049412459 0.049356457 0.049483515
0.04939675 0.049205754 0.049428325 0.049534772 0.049503382 0.049472354
0.049418949 0.049531247 0.049555611 0.049518857 0.049486432 0.049501017
0.049505822 0.049649984 0.049746159 0.049690377 0.049783837 0.049792364
0.049777918 0.049841974 0.049744915 0.049878292 0.04992586 0.049899261
0.05002832 0.050046477 0.050010577 0.050025057 0.050131302 0.050212543
0.050185867 0.050258242 0.050258789 0.0502766 0.050222211 0.050280083
0.050254632 0.050234705 0.050272387 0.050344177 0.050325863 0.050218746
0.050246976 0.050231125 0.050079964 0.049964771 0.049972177 0.050024051
0.049976841 0.049891207 0.049825281 0.049648415 0.049535874 0.049564742
0.049476534 0.049483884 0.049450461 0.049449444 0.049371436 0.049427021
0.049528182 0.049582064 0.049624778 0.049680136 0.049811255 0.049868353
0.050114054 0.049992021 0.050100043 0.050336238 0.050369121 0.050425656
0.050547924 0.050626185 0.050692812 0.050736628 0.050789718 0.05061058
0.050772395 0.050708447 0.050776668 0.05087427 0.050717007 0.050862059
0.05077637 0.050677672 0.050637301 0.050749954 0.050669428 0.050549377
0.050503589 0.050518882 0.050474308 0.050305981 0.050276022 0.050453294
0.05036632 0.050403316 0.050296184 0.050187554 0.050150972 0.050077435
0.050066095 0.05011284 0.050113875 0.050111301 0.050017957 0.049918443
0.04989282 0.049985301 0.050020717 0.049976934 0.049925607 0.049736694
0.049896862 0.04991594 0.049806148 0.049730178 0.049789991 0.049833409
0.049807414 0.04987606 0.049689021 0.049689021 0.049302414 0.049300577
0.049287815 0.049406208 0.049331699 0.049145259 0.049352501 0.049394965
0.049386889 0.049341008 0.049305063 0.049472641 0.049506389 0.049459059
0.049452245 0.049460482 0.049428139 0.049598865 0.049677022 0.049623698
0.049730998 0.049772602 0.049763218 0.049805705 0.049740113 0.049859826
0.049916148 0.049920931 0.050049674 0.050061122 0.050010495 0.050043419
0.050142217 0.050254799 0.050244618 0.050304949 0.050312974 0.050337475
0.050315574 0.050340194 0.050341811 0.050323922 0.050344486 0.050429281
0.050406471 0.05028927 0.05031528 0.050291829 0.050145891 0.050027896
0.050029796 0.050095484 0.050006256 0.049882594 0.049814202 0.049667917
0.049499817 0.049548045 0.049411412 0.049370684 0.049352914 0.049396604
0.049317095 0.04934914 0.049443543 0.04950361 0.049605638 0.049639422
0.049751122 0.049872868 0.050160922 0.05004146 0.050138235 0.050375979
0.050453234 0.050538138 0.050672188 0.050763946 0.050820276 0.050843153
0.050904825 0.050720695 0.050885316 0.050840683 0.050897054 0.050997
0.050856337 0.050970849 0.050872542 0.050772402 0.050739534 0.050817907
0.050740384 0.050610971 0.050596341 0.050578907 0.050535176 0.050402116
0.050365154 0.050496303 0.050390061 0.050399184 0.050301678 0.050209988
0.050153207 0.050097767 0.050020076 0.050058171 0.05006535 0.050048783
0.049992196 0.049891304 0.049827822 0.049957018 0.050003819 0.049937353
0.049869373 0.049654104 0.049799435 0.049850304 0.049750715 0.04971211
0.049719356 0.049771346 0.049742583 0.049784023 0.04963902 0.04963902
0.049163565 0.049189627 0.049188003 0.049304064 0.049240738 0.049078085
0.049260233 0.049243107 0.049258612 0.04922409 0.049195472 0.04938506
0.04944383 0.049406894 0.049413875 0.04939726 0.049354356 0.049547829
0.049600866 0.049546763 0.049674124 0.049752686 0.049745049 0.049766943
0.049737737 0.049845442 0.049894948 0.04992862 0.050067618 0.050071217
0.05000598 0.050071899 0.050163679 0.050291773 0.050300367 0.050366554
0.050390676 0.050408076 0.050409511 0.050398059 0.050429478 0.050439157
0.050470695 0.050516497 0.050491884 0.050380763 0.050400894 0.050378628
0.050228003 0.050118584 0.050103527 0.050171718 0.050031606 0.049898989
0.049802646 0.04968017 0.049467657 0.04953127 0.049338356 0.04924611
0.049274933 0.049307313 0.049240071 0.049288098 0.049373761 0.049434129
0.049564671 0.049601626 0.049699154 0.049873117 0.050184194 0.05009025
0.050206922 0.050404802 0.050543576 0.050661251 0.050812729 0.050920479
0.050956108 0.050971605 0.05105504 0.050867662 0.05102944 0.050997056
0.051045142 0.051133532 0.051008552 0.051077791 0.050978672 0.050886616
0.050854024 0.050897531 0.050812159 0.050679442 0.05067496 0.050627433
0.05058993 0.050502021 0.050468754 0.050544951 0.050414111 0.050398119
0.050300952 0.050218102 0.050152607 0.050082467 0.049966786 0.050009429
0.050014105 0.04996955 0.049948942 0.049851589 0.049773391 0.04993942
0.049982451 0.049891368 0.049783394 0.049590666 0.049671646 0.049740866
0.049665477 0.049679045 0.049648743 0.049704354 0.049670737 0.049678013
0.049599037 0.049599037 0.049011666 0.049091663 0.04905301 0.049170941
0.049129661 0.048989866 0.049141299 0.049091693 0.049137104 0.049127877
0.049093507 0.049270134 0.049360592 0.049353532 0.049360305 0.049302854
0.049287532 0.049494147 0.049522292 0.049466573 0.049609605 0.04972351
0.049714096 0.04972681 0.049728807 0.049833402 0.049870458 0.049927965
0.050079651 0.050080281 0.050002355 0.050111413 0.050206564 0.050320785
0.050337728 0.050427146 0.050483637 0.050498161 0.050505914 0.050457101
0.050513029 0.0505757 0.050641868 0.050612297 0.050582837 0.050500348
0.050521214 0.050487485 0.050336875 0.050234847 0.050183065 0.050259776
0.050050683 0.049950097 0.049799811 0.049674869 0.049434315 0.049507055
0.049268413 0.049126778 0.049210489 0.049175825 0.049139705 0.049243737
0.049308509 0.049366433 0.049496032 0.049564131 0.049673848 0.049869347
0.050185829 0.050121512 0.050308384 0.050451875 0.050651859 0.050796866