# vtk DataFile Version 3.0
axinsert(project(???,0,L2),2)
ASCII
DATASET STRUCTURED_POINTS
DIMENSIONS 256 1 1
ORIGIN 0 0 0
SPACING 1 1 1
POINT_DATA 256
SCALARS nrrd46911 float
LOOKUP_TABLE default
0 0 0 0 0 0 0 0 0 0 0 0 0 0 0 0 0 0 0 0 0 0 0 0 0 0 0 0 0 2.4494898e-06
1.9261361e-05 0.00013518876 0.00094881241 0.0063143675 0.038977485
0.21531101 0.97581065 2.2962241 1.438025 1.5385171 1.3553561 0.94220006
1.1604136 1.565708 1.8230296 1.7569408 1.5238415 1.8014604 1.7550864
1.6472294 2.042089 2.4781005 2.0966704 1.6245825 1.2945986 1.1048205
1.0004433 0.93877631 0.89771408 0.86777294 0.84419924 0.82453859 0.80729997
0.79192573 0.77793574 0.76521349 0.75337392 0.74238342 0.73211229
0.72245753 0.71334022 0.70466268 0.69632155 0.6882425 0.6803546 0.67262352
0.66506016 0.65771633 0.65063006 0.64393312 0.63739675 0.63105887
0.62470406 0.61853534 0.61209089 0.60528398 0.59821916 0.5912652 0.58513683
0.57957351 0.57598585 0.57375646 0.57265157 0.57236028 0.57210094
0.57103974 0.56765568 0.56231558 0.55608433 0.54957688 0.54340822 0.5379746
0.53237677 0.52490723 0.51700735 0.51246792 0.51244688 0.51479548
0.51634908 0.51537448 0.50960678 0.49952462 0.49049684 0.48859021
0.48511624 0.4775407 0.46161401 0.45432016 0.46088228 0.49506804 0.58107007
0.68102914 0.732243 0.74542242 0.73423707 0.71067494 0.67826957 0.61325681
0.61325681 0.60668135 0.62244469 0.61483616 0.56869251 0.50984234
0.47571236 0.45042071 0.4165867 0.38315308 0.35164779 0.31248146 0.26956689
0.24208349 0.23025697 0.22386095 0.22969569 0.2525363 0.29167405 0.34020516
0.3808482 0.40063101 0.4070811 0.40549496 0.39878011 0.39483568 0.4004806
0.41767359 0.44310251 0.46900052 0.48849821 0.49714223 0.49568969
0.48586708 0.46656287 0.44154555 0.41468003 0.39092845 0.37981886
0.38921109 0.41813415 0.46044528 0.51172376 0.5679549 0.62705457 0.68575263
0.74043328 0.78889441 0.82949883 0.8591935 0.88092929 0.89284152 0.89328587
0.88296324 0.86301506 0.83437639 0.79986227 0.76185352 0.72217977 0.6822775
0.64265192 0.60283953 0.56236184 0.52029705 0.47459802 0.42576182
0.37604356 0.32816607 0.28219083 0.23280419 0.16874556 0.088737406
0.02551868 0.0026479054 0.00024205371 1.9544821e-05 2e-06 0 0 0 0 0 0 0 0 0
0 0 0 0 0 0 0 0 0 0 0 0 0 0 0 0 0 0 0 0 0 0 0 0 0 0 0 0 0 0 0 0 0 0 0 0 0 0
0 0 0 0
