# vtk DataFile Version 3.0
axinsert(project(permute(???,2,0,1),0,L2),2)
ASCII
DATASET STRUCTURED_POINTS
DIMENSIONS 128 256 1
ORIGIN 0 0 0
SPACING 1 1 1
POINT_DATA 32768
SCALARS nrrd77177 float
LOOKUP_TABLE default
0.050005 0.050011024 0.050022021 0.049967065 0.049954198 0.049982123
0.050009374 0.050048031 0.049993005 0.049985189 0.049999002 0.050017517
0.049999017 0.050030544 0.050020039 0.050012011 0.049991008 0.049993042
0.050013103 0.050009001 0.049998209 0.050001014 0.049989186 0.049960021
0.049984999 0.049984086 0.050024185 0.05001203 0.050029241 0.050043102
0.050005164 0.049986031 0.049961999 0.050012108 0.050011002 0.049999036
0.049978003 0.050001051 0.04998301 0.050002091 0.050037004 0.050016999
0.049982999 0.049983062 0.050007004 0.049998023 0.049984999 0.049948007
0.050034296 0.050031167 0.049959052 0.050029065 0.050047271 0.050028197
0.049963221 0.049973 0.05000703 0.049959105 0.049914159 0.050009299
0.050063193 0.050062999 0.050014064 0.049960032 0.049989015 0.049955022
0.049994316 0.050049048 0.050035022 0.049963061 0.049959004 0.049989201
0.050025113 0.050028022 0.050037 0.049996074 0.049956087 0.050021149
0.050023053 0.049986001 0.050007999 0.049996011 0.049952004 0.050038088
0.050065324 0.04998501 0.049991004 0.049973067 0.049979001 0.049964011
0.049986098 0.05002008 0.049999021 0.050006051 0.049989045 0.050033033
0.050016101 0.049957007 0.049987055 0.050070111 0.050026391 0.049956005
0.049982037 0.049998146 0.050023001 0.049973 0.049996041 0.050016083
0.050012004 0.049959008 0.049985215 0.049996004 0.05001023 0.050051
0.050042063 0.049991351 0.049947038 0.049952999 0.050016124 0.050030023
0.050008014 0.049986027 0.050013032 0.050012004 0.049992029 0.049973056
0.05001701 0.05001701 0.049991235 0.049940109 0.050030041 0.05000107
0.049911018 0.049927011 0.049973033 0.050146129 0.049996 0.049921121
0.050012045 0.050010242 0.049991094 0.050035257 0.050111141 0.049946018
0.049961977 0.050058071 0.050059337 0.050059013 0.049986128 0.049961019
0.050018229 0.049966026 0.049932018 0.04995501 0.050018091 0.050024122
0.050069019 0.050086129 0.049971107 0.049953319 0.050016161 0.049961001
0.05001073 0.050030001 0.049937122 0.049984053 0.049976479 0.050010037
0.050016094 0.049949326 0.049969513 0.050015461 0.04999217 0.050038483
0.050033018 0.049912177 0.050049014 0.05007704 0.049966019 0.050083015
0.050116047 0.050030999 0.049878042 0.049964029 0.050076008 0.049877003
0.049857091 0.04998818 0.050107323 0.050056096 0.04999483 0.049982022
0.049968213 0.049941007 0.050046109 0.050181057 0.050016005 0.04987406
0.049887039 0.049972098 0.050077006 0.050067097 0.050047006 0.050016258
0.049912013 0.050014097 0.050048016 0.049981069 0.050028 0.049976002
0.049957037 0.050017111 0.050052419 0.049995031 0.049947057 0.050005075
0.049983017 0.04998203 0.050062142 0.050038125 0.049985126 0.049998078
0.049969077 0.050062068 0.049962088 0.049896002 0.049986999 0.050097004
0.05008712 0.049930129 0.049915079 0.049959123 0.050065268 0.049967095
0.049946148 0.050047006 0.049985014 0.049990028 0.050056055 0.049970068
0.050037999 0.050108258 0.050105006 0.050021075 0.049894083 0.049845356
0.049949072 0.050093058 0.049928039 0.04996606 0.050077092 0.050100006
0.049938004 0.049933046 0.050080024 0.050080024 0.049982019 0.049862247
0.050041009 0.050069116 0.049981002 0.049899008 0.049955003 0.050113998
0.050002113 0.049901001 0.049951173 0.04997126 0.050001349 0.050046239
0.050143115 0.049873199 0.049907297 0.050117541 0.050090235 0.050021239
0.049969811 0.049990233 0.049995311 0.050035711 0.049949203 0.04995944
0.049995154 0.050013334 0.050050262 0.050040402 0.04994664 0.049936477
0.05013388 0.049917057 0.049980089 0.05010109 0.049910627 0.049910188
0.049983192 0.050082311 0.049935333 0.049881604 0.050034296 0.050032225
0.049974352 0.050096225 0.050047137 0.049991265 0.050053999 0.050056167
0.050062019 0.050032999 0.050065242 0.049996115 0.049905315 0.049976002
0.050067354 0.049900062 0.049967147 0.049984023 0.050012115 0.049998086
0.049956143 0.050061099 0.049951088 0.049989212 0.050111011 0.050119147
0.049949333 0.049877219 0.049920168 0.050005119 0.050087009 0.05008214
0.049977008 0.04999635 0.049965009 0.049957208 0.050056081 0.050017104
0.05003101 0.049973045 0.050037004 0.049981002 0.049954005 0.050046012
0.050001014 0.050094154 0.049993228 0.050020158 0.050109144 0.049993169
0.049928032 0.050022032 0.050061192 0.050019681 0.049935073 0.049883798
0.049934015 0.05001324 0.050128028 0.049970504 0.049924999 0.049938757
0.050040003 0.05002562 0.049911074 0.050069325 0.049936105 0.05005018
0.050136097 0.049962427 0.050038215 0.050058287 0.050061081 0.050029043
0.049966007 0.049849384 0.049927045 0.050041415 0.049903005 0.049966514
0.050053008 0.050142214 0.049888998 0.049963042 0.050062023 0.050062023
0.049966011 0.049859058 0.050045006 0.050058097 0.050052091 0.049901001
0.049930047 0.050048087 0.050015613 0.049877044 0.049856666 0.049955428
0.050006893 0.050114535 0.050092548 0.04988724 0.049851339 0.050094768
0.0501297 0.049949553 0.050000153 0.050053794 0.049901597 0.050026741
0.049996 0.049976155 0.050025646 0.049989913 0.050050061 0.049979031
0.04995602 0.049937919 0.050154883 0.04992979 0.04998764 0.050115686
0.049916744 0.049868431 0.049953718 0.050166726 0.04994886 0.049928427
0.050066225 0.050006576 0.050000262 0.050107211 0.050023373 0.050041221
0.050068103 0.050041106 0.050110228 0.049949039 0.049998794 0.050013326
0.04997956 0.049965031 0.050009564 0.049958169 0.049998105 0.050011069
0.049943116 0.050039317 0.049991012 0.05002008 0.049930271 0.049991194
0.05008224 0.050011668 0.049994893 0.049905233 0.049948364 0.05006412
0.050053056 0.050107423 0.049987022 0.049957205 0.049981043 0.049953077
0.050070014 0.050055083 0.050062999 0.050002009 0.050031073 0.049999006
0.049992189 0.050061073 0.050101187 0.050119516 0.049985331 0.049985468
0.050064147 0.049996316 0.049923234 0.050068561 0.050153416 0.050005116
0.049970366 0.049867485 0.049854413 0.050000004 0.050141308 0.049983986
0.0499755 0.049956437 0.050022576 0.050058991 0.049900908 0.050064974
0.049938682 0.049998119 0.050121233 0.050010625 0.050016701 0.050045382
0.049997564 0.049976055 0.050046302 0.049874458 0.049949419 0.049988464
0.049949244 0.049953692 0.05000921 0.050126359 0.04986107 0.049975187
0.049961071 0.049961071 0.0499411 0.049875014 0.050015066 0.050007079
0.050063327 0.049928159 0.049866259 0.049944572 0.050025281 0.049885664
0.049810316 0.049934924 0.049985491 0.05011614 0.050018173 0.04993324
0.049833544 0.050041284 0.050124139 0.049943287 0.050083041 0.050087038
0.049865671 0.049959145 0.050032765 0.050018042 0.050040882 0.04994214
0.050035641 0.049929425 0.049961369 0.049960129 0.050136343 0.049962521
0.049992852 0.050093394 0.049971204 0.049903627 0.049922299 0.050198879
0.050009079 0.050014015 0.050016817 0.050017729 0.050062533 0.050067838
0.050042983 0.050083537 0.050090507 0.050013255 0.050107732 0.049909357
0.049945999 0.050048489 0.050028685 0.049984246 0.049984388 0.050043229
0.050001074 0.049993243 0.049911216 0.050074287 0.050055079 0.049919084
0.049918611 0.049976159 0.050007742 0.049958717 0.050071917 0.04996825
0.049966283 0.050113194 0.049996093 0.050102513 0.05005008 0.049966116
0.050023016 0.049987003 0.050057027 0.050073002 0.050092056 0.050050013
0.050025221 0.050040036 0.050077632 0.050042503 0.050145555 0.050132629
0.049982723 0.049961578 0.050059639 0.050037883 0.049985137 0.050083011
0.050158083 0.050001666 0.04999217 0.049898896 0.049863968 0.049989726
0.050127719 0.05000791 0.050003227 0.049943 0.050002053 0.050067421
0.049924057 0.050014704 0.049967211 0.04994195 0.050058991 0.050073128
0.049985591 0.050031587 0.049948096 0.049961291 0.050099984 0.049876429
0.049943961 0.049975365 0.049974881 0.049934324 0.049996842 0.050068177
0.049844317 0.049956087 0.049842104 0.049842104 0.049896274 0.049883045
0.049992308 0.049965121 0.050007697 0.049928598 0.04981089 0.049855009
0.049991883 0.04987983 0.04980661 0.049932931 0.049975462 0.050038047
0.049964122 0.04995694 0.049858145 0.050010379 0.050055701 0.049950451
0.050135639 0.050094388 0.049907744 0.049899515 0.050024789 0.05006535
0.050022844 0.049912982 0.050016955 0.049929094 0.049974903 0.049957465
0.050104305 0.049990255 0.049992848 0.050089002 0.050007086 0.049959559
0.049922537 0.050188966 0.050070092 0.050089762 0.049981695 0.050058089
0.050129719 0.050026901 0.050082106 0.050137352 0.050133251 0.050002813
0.050073095 0.049921133 0.049955975 0.050077599 0.050035719 0.050043534
0.050007224 0.050081279 0.049994208 0.049951375 0.049930364 0.050087139
0.050082318 0.049846139 0.049911655 0.049954187 0.049956746 0.049968407
0.050109424 0.050036259 0.049966097 0.050131284 0.049968094 0.050105363
0.050111029 0.050003089 0.050115008 0.050042097 0.050043203 0.050082106
0.050093286 0.050084122 0.050054513 0.050110474 0.050154313 0.050041176
0.050138641 0.050144929 0.049983833 0.049969032 0.050121158 0.050085049
0.050073966 0.050070003 0.050116666 0.050011896 0.050004158 0.049965274
0.049947713 0.049973436 0.050065454 0.050033327 0.050002899 0.049918208
0.049977627 0.050042488 0.049956687 0.049944803 0.049981572 0.049955662
0.050032374 0.050093394 0.049925175 0.04998124 0.049922965 0.049966995
0.05008189 0.049870543 0.049938586 0.049967501 0.049951136 0.049932245
0.04997813 0.049999051 0.049827382 0.049894031 0.04976603 0.04976603
0.049827397 0.049870156 0.049969684 0.049926367 0.049921341 0.049900278
0.049791813 0.049810436 0.049912568 0.049812958 0.049800657 0.049950451
0.049975451 0.049973652 0.049932618 0.049932372 0.049897887 0.049986586
0.049964055 0.049935997 0.050106667 0.05007796 0.049955908 0.049885329
0.049978208 0.050089415 0.050005425 0.049944852 0.050024353 0.049952094
0.049997974 0.049952343 0.050071966 0.050011333 0.0500075 0.050084215
0.050008081 0.050029367 0.049969345 0.050154235 0.050121531 0.050130084
0.050002713 0.050113242 0.050193932 0.050020948 0.050114509 0.050195325
0.050169297 0.050046932 0.050043419 0.049945019 0.050026089 0.050103817
0.050037865 0.050110649 0.05004533 0.050052397 0.049979586 0.049942505
0.049995482 0.050076079 0.050067626 0.049830213 0.04990454 0.049955267
0.049948368 0.050021227 0.050110068 0.050074212 0.049956009 0.050113212
0.049979057 0.050133102 0.050152 0.050039034 0.050221059 0.050105155
0.050058395 0.050108425 0.050094794 0.050117571 0.050125293 0.050184537
0.050201304 0.050084189 0.050117638 0.050149877 0.050005697 0.049999509
0.050195526 0.050122872 0.050166357 0.050060216 0.05007118 0.050046068
0.050034508 0.050022114 0.050037056 0.049973436 0.04997845 0.050035771
0.050004955 0.049915772 0.049953181 0.049985833 0.049971469 0.049902685
0.049974732 0.050004072 0.050051048 0.050055377 0.049849272 0.049918834
0.049906828 0.049963433 0.050014205 0.04984615 0.049931251 0.049917843
0.049905077 0.04993549 0.04991392 0.049926031 0.049824223 0.049812034
0.049734004 0.049734004 0.049743365 0.049830373 0.049917944 0.049871996
0.04983405 0.049879156 0.049784314 0.049779344 0.049824413 0.049709082
0.049765192 0.04995035 0.049962178 0.049963374 0.04990641 0.049885225
0.049922232 0.049946915 0.049889371 0.049915005 0.050029226 0.050034046
0.049959946 0.049894888 0.049918156 0.05006773 0.05001545 0.050033443
0.050060347 0.049965099 0.050016221 0.049975649 0.050049067 0.050033346
0.050054144 0.050062001 0.050009251 0.050129615 0.050054807 0.050109137
0.050159205 0.050139356 0.050057884 0.050178636 0.050252546 0.050059196
0.050144915 0.050254267 0.050173376 0.050117284 0.050055206 0.04997858
0.050112419 0.050121337 0.050065339 0.050156794 0.050065886 0.050019696
0.04997595 0.049971607 0.050072584 0.050050139 0.050033834 0.049858354
0.04989545 0.0499954 0.049966104 0.0500792 0.050113 0.050087139 0.049969003
0.050077036 0.050019007 0.050171006 0.050163027 0.05007001 0.050298106
0.050167214 0.050120462 0.050174002 0.050120391 0.050171651 0.050204471
0.050240975 0.050228491 0.050166663 0.050109703 0.0501527 0.050051801
0.050044268 0.050243076 0.050152253 0.050242811 0.050061308 0.050047077
0.05010087 0.050084203 0.050059613 0.050093755 0.049995005 0.04991902
0.050008409 0.050011214 0.049931325 0.049926598 0.049940329 0.04996223
0.049891621 0.049954813 0.050034802 0.050069287 0.049983613 0.049794171
0.049885474 0.049879301 0.049927603 0.049920429 0.049791403 0.049881689
0.049830221 0.049874131 0.049916949 0.049803667 0.049851075 0.049826108
0.049730051 0.049723037 0.049723037 0.049651224 0.049767733 0.049834937
0.049798969 0.049761433 0.049885165 0.049760371 0.049718719 0.049752299
0.049619548 0.049703717 0.049896426 0.0499097 0.049970988 0.049881391
0.049845021 0.049914014 0.049896907 0.049846303 0.049906321 0.049960922
0.049970862 0.049928717 0.049890891 0.049866714 0.050010219 0.050033305
0.050118376 0.050093245 0.049970038 0.050025873 0.050017737 0.050049182
0.050065272 0.050120167 0.050037399 0.050039865 0.050250284 0.050158478
0.050072391 0.050178368 0.050147973 0.050119553 0.050243709 0.050306085
0.050133176 0.050190218 0.050321423 0.050165396 0.05016537 0.050108653
0.050040945 0.050166007 0.050121378 0.050120175 0.050180286 0.05006988
0.05004219 0.050001144 0.050006699 0.050127793 0.050027382 0.049999967
0.049906638 0.049892399 0.050066538 0.050004035 0.050119177 0.050136004
0.050091069 0.050022021 0.050055016 0.050072014 0.050207246 0.050160129
0.050090302 0.050330173 0.050222438 0.050221492 0.05027679 0.050176833
0.05025328 0.050261702 0.050286613 0.050258014 0.050256521 0.050119143
0.050167065 0.050119817 0.050095707 0.050259557 0.05017611 0.050290246
0.050077472 0.050053269 0.050163329 0.050135724 0.050100338 0.050118145
0.050027683 0.049910642 0.049960751 0.050006714 0.049937967 0.049907453
0.049924184 0.049942706 0.049884196 0.049937833 0.05003687 0.050043311
0.049896743 0.049772393 0.049882337 0.049838983 0.049851943 0.049812932
0.04971493 0.049780853 0.049745731 0.049856525 0.049867291 0.04968264
0.049778223 0.049805097 0.049649037 0.049723033 0.049723033 0.049555082
0.049689185 0.049730711 0.049704 0.049701538 0.049900286 0.049726721
0.049623191 0.049684275 0.049557742 0.049638364 0.049794842 0.04982388
0.049941681 0.04986183 0.049817722 0.049883325 0.049863975 0.049825754
0.049902208 0.049926557 0.049897842 0.049890947 0.049868207 0.049843386
0.049948953 0.050022651 0.050143342 0.050092485 0.049991071 0.050038915
0.050050452 0.050081015 0.05011541 0.050178755 0.0500408 0.050105743
0.050354756 0.050252128 0.050066404 0.050189503 0.050181713 0.050182279
0.050304484 0.050348565 0.050235249 0.05026174 0.050390255 0.050177801
0.050180383 0.050177474 0.050135639 0.050169036 0.050110947 0.050192125
0.050195266 0.050082847 0.050117802 0.050057426 0.050025865 0.050146166
0.050021842 0.049976103 0.049970951 0.049913343 0.050136533 0.050070059
0.050145086 0.050168004 0.050109014 0.050098039 0.050062109 0.050139122
0.050247632 0.050178405 0.050092105 0.050329421 0.050264101 0.050328769
0.050390717 0.05026333 0.050363075 0.050308123 0.05034776 0.050293557
0.050313015 0.050139736 0.050204895 0.050203301 0.050154462 0.050263613
0.05019781 0.050315604 0.050113682 0.050096847 0.050222367 0.050182324
0.050164793 0.050121855 0.050053075 0.049932595 0.049902782 0.049985912
0.049925901 0.049897756 0.049917363 0.049922671 0.049862001 0.049941927
0.050027568 0.049958915 0.049799006 0.04976755 0.049879782 0.049791537
0.049754072 0.049700301 0.049638532 0.04966234 0.049694765 0.049814381
0.049785513 0.04958684 0.049702521 0.049736135 0.049573027 0.049720004
0.049720004 0.049450018 0.049605507 0.04961947 0.049578644 0.049642589
0.049879342 0.049691755 0.049522787 0.04958855 0.049501967 0.049584083
0.049675945 0.049730312 0.049851138 0.049851369 0.0497902 0.049837459
0.049852036 0.049807508 0.049885903 0.04991227 0.049826503 0.049860504
0.049852848 0.049854372 0.049911048 0.049966756 0.050103128 0.050060064
0.050034218 0.050058417 0.050060492 0.050130595 0.050177511 0.050225057
0.050083164 0.050192658 0.050418649 0.05031313 0.050105449 0.050216049
0.050248954 0.05026792 0.050371733 0.050369199 0.050346483 0.05035593
0.050452098 0.050223816 0.050191827 0.050243258 0.050232977 0.050142694
0.050120641 0.050268836 0.050214492 0.05012038 0.050201353 0.050133973
0.050040103 0.050133593 0.050039433 0.049981195 0.050054029 0.049970284
0.050170358 0.050152183 0.050172023 0.05019705 0.050161 0.050170068
0.050097179 0.050224304 0.050295986 0.050241854 0.050097223 0.050328147
0.050298527 0.0504108 0.050487995 0.050368562 0.050493937 0.050373223
0.050446834 0.050335694 0.050330717 0.050166216 0.050259996 0.05029558
0.050219245 0.050279725 0.050231524 0.050335638 0.050175536 0.050177392
0.050273303 0.050237931 0.050239697 0.050105292 0.050060671 0.049945738
0.049843561 0.049949899 0.04990137 0.049895007 0.049893018 0.049893696
0.049824644 0.049965214 0.050008882 0.049841084 0.04970194 0.049760722
0.04984213 0.049744166 0.049670227 0.049597647 0.049577724 0.049556792
0.049664479 0.049719561 0.049671888 0.049519092 0.049611956 0.049624171
0.049513057 0.049693007 0.049693007 0.049333014 0.049523529 0.049509387
0.04942169 0.049567685 0.049801908 0.049636021 0.049433768 0.049460262
0.049427398 0.04954347 0.049561482 0.049653362 0.049716484 0.049837656
0.049749229 0.049765561 0.049836729 0.049781591 0.049854361 0.049897205
0.049779393 0.04983554 0.049856722 0.049881857 0.049890757 0.049883511
0.05004419 0.050024603 0.05007967 0.05007264 0.050061647 0.050176632
0.050227877 0.050266404 0.050157662 0.050281934 0.050446518 0.050347183
0.050186835 0.050283276 0.050343052 0.050391626 0.05046124 0.050359964
0.050448094 0.050466716 0.050516263 0.050306801 0.050219338 0.050299544
0.050307523 0.050126627 0.050179619 0.050350156 0.05024118 0.050184399
0.050257467 0.050214518 0.050069284 0.050101783 0.050077926 0.050033141
0.050146844 0.050050247 0.050162226 0.050221328 0.050199032 0.050230164
0.050256006 0.05023009 0.050149221 0.050325412 0.05036018 0.050341323
0.050136983 0.050366472 0.050349526 0.050467171 0.050561938 0.05047223
0.050619897 0.050472904 0.050587256 0.050392721 0.050343581 0.050204478
0.050319981 0.050386216 0.05029171 0.050323796 0.050284013 0.050365936
0.050254796 0.050279971 0.050322093 0.050305732 0.05028747 0.050068405
0.050053772 0.049936779 0.049798228 0.049901873 0.049873393 0.049900521
0.049850717 0.049851179 0.049783301 0.049964268 0.049952012 0.049731206
0.049620561 0.049739286 0.049762752 0.049702175 0.049619652 0.049519498
0.049525756 0.049453035 0.049610335 0.049578525 0.049525574 0.049457218
0.049510352 0.049500216 0.049471177 0.049617056 0.049617056 0.04920207
0.049444281 0.049406562 0.049257323 0.049480699 0.049689692 0.049528468
0.049330506 0.049326994 0.049345709 0.049500879 0.049435932 0.049587194
0.049571097 0.049800687 0.04968188 0.049646381 0.049778655 0.049753871
0.049824398 0.049880859 0.049779918 0.049810197 0.049860403 0.049891807
0.049863834 0.049813136 0.050020065 0.050010167 0.050096568 0.05007495
0.050074484 0.05020592 0.050249487 0.050296351 0.050244533 0.050361011
0.050461173 0.050374839 0.050296243 0.050390802 0.050440438 0.050542384
0.050585218 0.050336592 0.050532665 0.050594591 0.050599482 0.050421257
0.050262347 0.050346427 0.050350778 0.050140481 0.050287928 0.050435875
0.050280578 0.050267804 0.050280802 0.050275438 0.050119188 0.050054591
0.050126057 0.050129984 0.050231639 0.050115269 0.050141335 0.050249394
0.050221279 0.050288267 0.050379001 0.050294057 0.050202169 0.050425246
0.050449956 0.050451439 0.05022366 0.05046558 0.050443623 0.050524082
0.050627824 0.050554831 0.050700162 0.050588872 0.05074881 0.050478615
0.050402205 0.050267931 0.05037313 0.050469734 0.050382264 0.050399262
0.05034598 0.050406847 0.050337035 0.050374169 0.050366722 0.050371375
0.050276082 0.050014816 0.050037257 0.049910691 0.049780063 0.049833868
0.049844131 0.04992136 0.049806174 0.049806558 0.049745042 0.049885802
0.049832799 0.049654692 0.049557809 0.049703106 0.049665 0.049664691
0.049589604 0.049471021 0.049450491 0.049318787 0.049508367 0.049425788
0.049357336 0.049375247 0.049415447 0.049390327 0.04944234 0.049485154
0.049485154 0.049069297 0.049361859 0.049306098 0.049131703 0.049393442
0.049579885 0.049370978 0.049178518 0.049237732 0.049285211 0.049426332
0.049275469 0.04951309 0.049443278 0.049716886 0.049579717 0.049490754
0.04966002 0.049728114 0.049814362 0.049875058 0.049830221 0.049777184
0.049830448 0.049855422 0.049813159 0.049791686 0.05004793 0.050016232
0.050064802 0.050064806 0.050107468 0.050224379 0.050246399 0.050293792
0.05032108 0.050429713 0.050491612 0.0504198 0.050414301 0.050513346
0.050509483 0.050683416 0.050735466 0.050339889 0.050605115 0.05074219
0.050713643 0.050557118 0.050313815 0.050386067 0.050362524 0.050182909
0.050413337 0.050524645 0.05033081 0.050359607 0.050289735 0.050296418
0.050163761 0.049993154 0.050161641 0.050235894 0.050291631 0.050125413
0.050127916 0.050233521 0.05023928 0.050383382 0.050495189 0.050375
0.050227005 0.050510999 0.050575279 0.050555736 0.050344259 0.050612066
0.050584085 0.050616633 0.050705604 0.050609186 0.050713085 0.050687063
0.050898239 0.050592888 0.050523959 0.050372481 0.050422434 0.050545901
0.050488595 0.050488371 0.050395623 0.050450183 0.050404433 0.050428741
0.050408512 0.05041663 0.050207127 0.049953956 0.050013017 0.049879551
0.049787309 0.049736388 0.049815021 0.049963068 0.049782831 0.049780935
0.049716044 0.049716432 0.049666297 0.049606424 0.049498312 0.049652439
0.049588766 0.049623366 0.049543694 0.049439277 0.049323831 0.04915078
0.049371991 0.049293499 0.049193684 0.049260359 0.049338184 0.04930656
0.049414389 0.04931128 0.04931128 0.048962727 0.049270328 0.049200922
0.049079772 0.049309064 0.04947285 0.04921167 0.048994157 0.049213979
0.049251575 0.049301058 0.049083263 0.049422354 0.049346063 0.049565837
0.049452402 0.049361251 0.0495014 0.0496943 0.049821842 0.049882099
0.049895238 0.04972817 0.049760368 0.04978222 0.04975152 0.049832534
0.050104219 0.050030161 0.050001733 0.050059699 0.050152823 0.050247539
0.0502446 0.050249346 0.050378885 0.050497595 0.050555736 0.050488167
0.050524723 0.050614275 0.050527185 0.050781947 0.05088925 0.05041125
0.050671633 0.050905187 0.050840069 0.050692283 0.050379194 0.050431419
0.050357211 0.050233506 0.050531536 0.050590891 0.050388202 0.05042341
0.050303064 0.0502683 0.050158259 0.049923755 0.050159838 0.05029105
0.050321825 0.050068837 0.050117049 0.050192047 0.050262079 0.050503746
0.050567109 0.050457358 0.050203398 0.050578702 0.050717082 0.050646
0.050496038 0.050759114 0.050752036 0.050761223 0.0508053 0.050639458
0.050686184 0.050741103 0.050990447 0.050731044 0.050696574 0.050531246
0.050486371 0.050607968 0.050593834 0.050569948 0.050423987 0.050486166
0.050451007 0.050435577 0.050450701 0.050443288 0.050120723 0.049908634
0.049972799 0.04985493 0.04979714 0.049617443 0.049789153 0.05001156
0.04979765 0.04978605 0.049706757 0.049507726 0.049511738 0.049565777
0.049424924 0.049588498 0.049548775 0.04956203 0.049458697 0.049399823
0.049146239 0.048980586 0.049244724 0.049194098 0.049056321 0.049118578
0.049278844 0.049248852 0.049372356 0.049122319 0.049122319 0.048913155
0.049175013 0.049091682 0.049095716 0.049208023 0.049338773 0.049108546
0.048843831 0.049226616 0.049208138 0.04913605 0.048915446 0.049334068
0.049275957 0.049353104 0.049333736 0.049339227 0.049353663 0.049643174
0.049822729 0.049873207 0.049917433 0.049666587 0.049689379 0.049723018
0.049716879 0.049918372 0.050144486 0.050043955 0.04995041 0.050072365
0.050197184 0.050294369 0.050266258 0.050190281 0.050439864 0.050571401
0.050656173 0.050571404 0.050625995 0.050667729 0.050508291 0.05083593
0.051017996 0.050569627 0.05074311 0.051054649 0.050954893 0.050799131
0.050474118 0.050497174 0.050360043 0.050279129 0.050627377 0.050601002
0.05043434 0.050415009 0.050325081 0.050208017 0.050063007 0.049868517
0.050101157 0.050250415 0.050316043 0.0499698 0.050088942 0.050139353
0.050287653 0.050608911 0.050578032 0.050516177 0.050146397 0.050632108
0.050829612 0.050712671 0.050685026 0.050866004 0.050907139 0.05094244
0.050916698 0.050660726 0.050686128 0.050761443 0.051003706 0.050884027
0.050885588 0.050746433 0.050594296 0.05065858 0.050675794 0.05063099
0.050448392 0.050504439 0.050482586 0.05042183 0.050507944 0.050468519
0.050071374 0.049914539 0.049919505 0.049841337 0.049786929 0.049525466
0.04976866 0.050034981 0.04986494 0.04982096 0.049722299 0.049336337
0.04943756 0.049518704 0.049325675 0.049508911 0.049530003 0.049466643
0.04933513 0.049328268 0.048964679 0.048851732 0.049142458 0.049114704
0.048948575 0.048982684 0.049230773 0.049208008 0.049301375 0.048945174
0.048945174 0.048917312 0.049078092 0.048989043 0.049125139 0.049071819
0.04915889 0.049073871 0.048783541 0.049208194 0.049109235 0.048972454
0.04884493 0.049271192 0.049214717 0.04912306 0.049265817 0.049444117
0.049260896 0.04957369 0.049791999 0.049811959 0.049868789 0.049614094
0.049668755 0.049729411 0.049733259 0.050015051 0.050138064 0.05005509
0.04995849 0.05010476 0.05023507 0.050360423 0.050310116 0.050176114
0.050537482 0.050649267 0.050765675 0.050645784 0.050732899 0.050677918
0.050500829 0.050868403 0.051098831 0.050791733 0.05082706 0.051152088
0.051025037 0.050869014 0.05059645 0.050590336 0.050391752 0.050342802
0.050669242 0.050561879 0.050430108 0.050320502 0.050329454 0.050142366
0.049891084 0.049833335 0.049997028 0.050105598 0.050260998 0.049867399
0.050037775 0.050072443 0.050292097 0.050653711 0.050529536 0.050538506
0.050108749 0.050674412 0.050865792 0.05073956 0.050893813 0.050950713
0.051000856 0.05113088 0.051015366 0.050697193 0.050768055 0.050806101
0.050951112 0.051047001 0.051051702 0.050990824 0.05075882 0.050716359
0.050732847 0.050666284 0.050499178 0.050505936 0.050510004 0.05042854
0.050580464 0.050496977 0.050079886 0.049987808 0.049875021 0.049850348
0.049748663 0.049524248 0.049746417 0.050000019 0.049978506 0.049867295
0.04975681 0.049253881 0.049465146 0.049467303 0.049200442 0.049414713
0.049500547 0.049345382 0.049196467 0.049217638 0.048846394 0.048779216
0.049033981 0.049034279 0.048858084 0.048891593 0.049191169 0.049161952
0.049190506 0.048797011 0.048797011 0.048918121 0.048979152 0.048892103
0.049101066 0.048916753 0.048961438 0.049070768 0.048800841 0.049097605
0.048945699 0.048865616 0.048908208 0.049246021 0.049146932 0.048953202
0.049263801 0.049601473 0.04923486 0.049499385 0.049721453 0.049689509
0.049771614 0.049601592 0.049716659 0.049798194 0.049795143 0.050090186
0.050087549 0.050059937 0.050047357 0.050149482 0.050268006 0.050413098
0.050349891 0.050260112 0.050690982 0.050730582 0.050850321 0.05069916
0.05086071 0.050674286 0.050556578 0.050914023 0.051114205 0.051024023
0.050924715 0.051181577 0.051021744 0.0509363 0.050713822 0.050696477
0.050469711 0.050431497 0.050651226 0.050487783 0.050369903 0.050165415
0.050295051 0.050081648 0.049700409 0.049813107 0.04989038 0.049885057
0.050123703 0.049780078 0.04998 0.049979612 0.050237697 0.050608374
0.050441045 0.050534111 0.050147228 0.050704546 0.050822638 0.050724059
0.051088538 0.051034749 0.051032834 0.051288914 0.051083382 0.050776519
0.050932314 0.050938446 0.050898001 0.051193442 0.051176567 0.051206999
0.050961416 0.050804701 0.050796397 0.050682515 0.050577857 0.050493978
0.05053857 0.050481241 0.050645102 0.05051386 0.050116368 0.050100364
0.04987368 0.049896147 0.049717687 0.049640726 0.04971908 0.049904991
0.050095219 0.049891628 0.049787957 0.049265012 0.04955161 0.049415376
0.049065083 0.049317565 0.04944247 0.049221314 0.049077887 0.049085565
0.048823949 0.048754871 0.048871689 0.048937082 0.048780266 0.048864696
0.049151059 0.049084835 0.049033653 0.048687052 0.048687052 0.048836734
0.048862007 0.048784066 0.048991449 0.048793249 0.048796535 0.049045518
0.04882852 0.048898533 0.048766717 0.048836559 0.049062833 0.049235877
0.049076766 0.048902724 0.049306426 0.04968413 0.049256142 0.049432974
0.049619429 0.049550343 0.049684722 0.049650859 0.049803071 0.049870148
0.049873244 0.050123647 0.050023749 0.050055485 0.050187737 0.050211683
0.050300714 0.050407581 0.050370827 0.050446264 0.050889626 0.050828647
0.050892748 0.050745003 0.051020231 0.050710119 0.050705001 0.050977774
0.05108818 0.051207539 0.051026788 0.051157847 0.050960299 0.051021963
0.050810795 0.050777469 0.050596114 0.050537925 0.050603155 0.050402749
0.050278749 0.050017558 0.050214227 0.0500139 0.049543958 0.04980902
0.049796816 0.049634229 0.049870443 0.049701869 0.049916565 0.049859252
0.050105359 0.050473675 0.050335396 0.050509907 0.050270412 0.050710727
0.050750941 0.050700709 0.051235795 0.051118396 0.051056758 0.051388435
0.05113405 0.050925635 0.051152106 0.051178314 0.050944064 0.051290192
0.05126255 0.051344007 0.051159594 0.050938524 0.050898716 0.05070227
0.050661504 0.05049561 0.05057314 0.050576042 0.050665498 0.050501686
0.0501417 0.050188471 0.049934667 0.049981758 0.04974772 0.04983383
0.049698114 0.04979156 0.050153084 0.049864579 0.04978206 0.049342502
0.049619805 0.049360003 0.048950065 0.049229998 0.049364168 0.049116615
0.049012467 0.048976235 0.048861772 0.048762091 0.048660446 0.048822545
0.048721209 0.048869547 0.04907782 0.04896082 0.048834603 0.048615169
0.048615169 0.048654392 0.048712175 0.048644964 0.048816815 0.048741553
0.048693232 0.048964977 0.04880549 0.048674967 0.048644036 0.048856016
0.049202103 0.049201377 0.049035929 0.048972495 0.049349762 0.049624197
0.049294323 0.049378887 0.049508911 0.049463592 0.049646925 0.049748383
0.049879916 0.049880415 0.049940038 0.050108951 0.049981933 0.050048809
0.0503227 0.050298292 0.05033531 0.050341122 0.050386485 0.050674185
0.051099982 0.050962247 0.050925255 0.050820131 0.051202599 0.050840423
0.050941169 0.05104487 0.051068757 0.051314905 0.051126957 0.05112239
0.050898749 0.051111832 0.050896127 0.050818712 0.050734799 0.050650489
0.05056186 0.05033889 0.050182283 0.049948268 0.050099641 0.049913585
0.04944589 0.049794648 0.049698178 0.049380999 0.049512323 0.04960043
0.049827915 0.049728539 0.049911909 0.050274778 0.050229914 0.050463617