# vtk DataFile Version 3.0
axinsert(project(permute(???,2,0,1),0,L2),2)
ASCII
DATASET STRUCTURED_POINTS
DIMENSIONS 128 256 1
ORIGIN 0 0 0
SPACING 1 1 1
POINT_DATA 32768
SCALARS nrrd77177 float
LOOKUP_TABLE default
0.050013028 0.050030034 0.049995001 0.049957011 0.049999095 0.0500331
0.049985003 0.049963206 0.050004058 0.050016031 0.04996502 0.050001159
0.050073028 0.050030086 0.04996901 0.050036006 0.050014209 0.050009005
0.049983382 0.049911998 0.049965002 0.050018128 0.05003101 0.049992014
0.049988214 0.049980033 0.05003722 0.050043035 0.050006013 0.049999155
0.049997006 0.049978103 0.050002053 0.050055165 0.04999413 0.050002128
0.04998802 0.050008003 0.049976021 0.049939007 0.049993347 0.050000001
0.049991105 0.050006319 0.049992017 0.049980219 0.049991079 0.050051358
0.050059058 0.049986001 0.049977999 0.050020002 0.049977016 0.049940001
0.049979087 0.050042208 0.050052043 0.049971256 0.049999513 0.050027169
0.04999543 0.050014131 0.04997918 0.050008059 0.050043177 0.050019391
0.049939029 0.049929049 0.050021414 0.050050121 0.049977083 0.05000313
0.050001018 0.049977116 0.049997017 0.050015099 0.050008044 0.050029177
0.050037179 0.049946006 0.049965005 0.05002512 0.049978051 0.050041433
0.050022233 0.049968999 0.050039031 0.049986396 0.049987242 0.050016023
0.049976047 0.049983095 0.050042108 0.050003342 0.049948025 0.050002027
0.050009001 0.05000405 0.049980044 0.0500121 0.050022069 0.049997106
0.049970154 0.050006341 0.050086007 0.050069097 0.049975626 0.049939007
0.049991075 0.049993083 0.049995013 0.049966052 0.049954154 0.050017048
0.050039057 0.04999603 0.049989022 0.049989004 0.050009053 0.049977008
0.049974114 0.050034378 0.050034009 0.049996011 0.050016999 0.049991142
0.049990118 0.049990118 0.050031018 0.04999603 0.04997116 0.049918052
0.049931087 0.050024297 0.049986262 0.050066154 0.049988024 0.049987271
0.049971037 0.050016139 0.050094016 0.05007064 0.05001102 0.050019037
0.049989175 0.050059184 0.049985003 0.049886096 0.049988043 0.049996
0.050044004 0.049924061 0.049923055 0.049961273 0.050073061 0.05007612
0.050058357 0.050042 0.049974043 0.049978133 0.050022006 0.050055034
0.050010189 0.049988035 0.049924035 0.049987283 0.049985304 0.0498841
0.049989101 0.050004147 0.049994159 0.050028097 0.049956132 0.04997826
0.050009023 0.050016023 0.050101515 0.050030079 0.049943112 0.050101034
0.050023004 0.049916066 0.049931027 0.050084002 0.05015 0.049875062
0.049894057 0.050016008 0.050050322 0.050027043 0.049962293 0.050003003
0.050097097 0.049980011 0.049951397 0.049987081 0.050005 0.049999002
0.049900107 0.049984213 0.050047059 0.049999077 0.050010011 0.050055142
0.049964018 0.050052255 0.050066009 0.049918301 0.049977008 0.049993005
0.049949162 0.050088007 0.050082143 0.049957022 0.050041042 0.049950004
0.049956001 0.050026011 0.049989998 0.05002401 0.050083045 0.049998
0.049900092 0.050019052 0.049994133 0.049958006 0.049949031 0.050070025
0.050067078 0.049965005 0.049928006 0.050000999 0.050170001 0.050053012
0.049926165 0.049937058 0.050030019 0.049959999 0.049968097 0.049966
0.049963001 0.050066117 0.050124001 0.050029278 0.049916048 0.04989605
0.049941041 0.05000503 0.049945001 0.050045017 0.050102044 0.050033014
0.050003003 0.049954042 0.050032053 0.050032053 0.050013077 0.049884271
0.04998805 0.050000086 0.049929034 0.049926005 0.049981058 0.05017006
0.049986012 0.049926046 0.049993113 0.050018206 0.050009172 0.05004647
0.050124153 0.049903139 0.049941722 0.050104413 0.050048519 0.050005063
0.049993254 0.049952134 0.050000291 0.049936317 0.049907096 0.049968205
0.050037123 0.050028354 0.050078269 0.050071288 0.049942359 0.049998403
0.050082408 0.049954072 0.050004032 0.050034132 0.049885474 0.049933195
0.050015904 0.049989197 0.049960107 0.049941447 0.05000839 0.050046407
0.049957294 0.050038304 0.050047036 0.049957208 0.050064027 0.050073214
0.050007019 0.050087001 0.050076194 0.049984999 0.049908038 0.050030999
0.050138224 0.049867041 0.049876187 0.049960002 0.050053287 0.050026022
0.049960323 0.050025024 0.050024252 0.049958326 0.050068222 0.050115019
0.049935047 0.049878146 0.049883284 0.049987216 0.05008411 0.050067175
0.049991 0.05003931 0.049952019 0.049992271 0.050057158 0.049983162
0.050028022 0.04995105 0.050013032 0.050046016 0.050032225 0.050022021
0.049995042 0.050020002 0.049964063 0.050018001 0.05007806 0.050044157
0.049990039 0.050017003 0.049986139 0.050020285 0.049958099 0.04990216
0.049952 0.050077073 0.05008401 0.049953215 0.049942005 0.04997234
0.050078068 0.049986087 0.049918074 0.050047047 0.050029002 0.049983002
0.050019044 0.049975257 0.050036039 0.050070401 0.050101064 0.050050136
0.049902029 0.049833268 0.049901001 0.050044246 0.049936 0.049997158
0.050087079 0.050108086 0.049937002 0.049947001 0.050064009 0.050064009
0.049976002 0.049840178 0.050021008 0.050051097 0.050002001 0.049892005
0.049948007 0.050117034 0.0499993 0.04989101 0.049917433 0.049984377
0.050009742 0.05007647 0.0501354 0.049865719 0.049888488 0.050113287
0.050097682 0.049978763 0.049970135 0.049990568 0.049950637 0.050000288
0.049949475 0.049962714 0.050019369 0.050014675 0.050064635 0.050031815
0.049943272 0.049962785 0.05014753 0.049921412 0.049990665 0.050095428
0.049894191 0.049882274 0.049985625 0.050095532 0.049932465 0.049906548
0.050041329 0.050030455 0.049974404 0.050095223 0.050044216 0.05000725
0.050074026 0.050060198 0.050078075 0.050011013 0.050039545 0.050003175
0.049937379 0.049990013 0.050078657 0.049907245 0.049957223 0.049979009
0.049982179 0.050017234 0.049960144 0.050039105 0.049963277 0.049978409
0.050094198 0.050070524 0.049936697 0.049872335 0.049911417 0.050027207
0.05007609 0.050100423 0.04997002 0.049994417 0.049972102 0.049959254
0.050076161 0.050028197 0.050046027 0.049978051 0.050051 0.050016012
0.049989 0.050062008 0.05005201 0.050102141 0.049986202 0.050013207
0.050096121 0.050013203 0.049936075 0.050055116 0.050091226 0.05001384
0.049954172 0.049873002 0.049899116 0.050030507 0.050126016 0.049975753
0.049962074 0.049961064 0.050050054 0.050034672 0.049902245 0.050069612
0.049963254 0.05000836 0.050102174 0.049975622 0.050027382 0.050055422
0.050039288 0.050009049 0.049970094 0.049841471 0.049919188 0.050014578
0.049926061 0.049969643 0.050048016 0.050145295 0.049885016 0.049966082
0.050020035 0.050020035 0.049949042 0.049843039 0.050017018 0.050026082
0.050051138 0.04990603 0.049903084 0.050016254 0.050015923 0.049883228
0.049836975 0.049949709 0.049999356 0.050114878 0.050072286 0.049893904
0.049841858 0.050073419 0.050121419 0.049938545 0.050018821 0.050050456
0.049878173 0.049984153 0.050001714 0.049986582 0.050036155 0.049977466
0.050049804 0.04996774 0.049957778 0.04995954 0.05016182 0.049942616
0.049991392 0.050103508 0.049931485 0.049875896 0.049945176 0.050172277
0.049965341 0.049960718 0.050044462 0.05001799 0.050018433 0.050094418
0.050038625 0.050058339 0.050085235 0.050033204 0.050112423 0.049940147
0.049973942 0.050025441 0.050000686 0.049979117 0.050013665 0.049983326
0.049994152 0.049991179 0.049919203 0.05004245 0.05000408 0.049978148
0.049929544 0.049980346 0.050047584 0.049983025 0.05000025 0.049920402
0.04994351 0.050081257 0.050031152 0.050107684 0.050004121 0.049969293
0.05000012 0.049968075 0.050075028 0.050065096 0.050082002 0.050025012
0.05004907 0.050030012 0.050036218 0.050067101 0.050131194 0.050135437
0.049991369 0.049988464 0.050072249 0.050022434 0.049953438 0.050087899
0.050158586 0.050007332 0.049981579 0.049879685 0.049859896 0.050003592
0.05014468 0.049998406 0.049997032 0.049955666 0.050028 0.050067175
0.04990932 0.050047338 0.049955811 0.049967386 0.050087474 0.050026916
0.05000205 0.050037507 0.049974773 0.049968131 0.050054517 0.049863502
0.049932696 0.049979523 0.049955525 0.049948622 0.050011441 0.050111312
0.049854144 0.049970143 0.049914081 0.049914081 0.049912177 0.049858022
0.049994133 0.049977086 0.050037436 0.0499193 0.049839452 0.04990878
0.050010618 0.049886141 0.049802918 0.049930423 0.049980089 0.050082654
0.049999192 0.049934886 0.049836654 0.050024785 0.050093368 0.049936268
0.050092336 0.05008221 0.049869988 0.049923953 0.05002512 0.050032053
0.050036088 0.049932335 0.05003082 0.049933653 0.049970318 0.04996622
0.050136477 0.049976896 0.049995907 0.050093714 0.049982186 0.049919803
0.049922008 0.050197821 0.050029948 0.050046686 0.050005477 0.050036285
0.050085992 0.050056197 0.050061449 0.050105825 0.050114796 0.050008461
0.050098922 0.049913663 0.049943086 0.050056595 0.050034773 0.050006401
0.049994417 0.050052356 0.049994171 0.049964409 0.04990235 0.050069354
0.050055213 0.049884185 0.04990983 0.049960312 0.049978025 0.049948875
0.050069027 0.049987424 0.049958374 0.050119393 0.049983207 0.05010571
0.050070159 0.049985215 0.050062045 0.050011002 0.050062016 0.050083
0.050106052 0.050071009 0.050054222 0.050082065 0.050121713 0.050057556
0.050160736 0.050151624 0.049991924 0.049976666 0.050093982 0.050066162
0.050025638 0.050091568 0.050154544 0.050011091 0.050003782 0.049927432
0.049899921 0.049989723 0.050116677 0.050024446 0.050013237 0.049939454
0.050001003 0.050065815 0.049936697 0.049991183 0.049974672 0.049940299
0.050041746 0.05007568 0.049959209 0.050006863 0.049931452 0.04995653
0.050087351 0.049867511 0.04993232 0.049968485 0.049963102 0.04993435
0.049990043 0.050046146 0.049834363 0.049934071 0.049809072 0.049809072
0.049856342 0.049860071 0.049970448 0.049934186 0.04996793 0.049906861
0.049795251 0.049830258 0.049957275 0.049853437 0.049797602 0.049933698
0.049971472 0.050007883 0.049948148 0.049940899 0.049866594 0.049993247
0.050015446 0.049935661 0.050116614 0.050083213 0.049916085 0.049883243
0.050002888 0.050072506 0.050018206 0.049922101 0.050021671 0.049940962
0.049989481 0.049960278 0.050100744 0.050004307 0.050001226 0.050091714
0.05000956 0.049984306 0.049938481 0.050182093 0.050092235 0.050114736
0.049990881 0.050081678 0.050155573 0.050028339 0.050097719 0.050160743
0.050154708 0.050018232 0.050063282 0.049926538 0.049976096 0.050084736
0.050035827 0.050064664 0.050018318 0.050063416 0.049979415 0.049934562
0.049937513 0.050072193 0.050066553 0.049826261 0.04989684 0.049942359
0.049938865 0.049974538 0.050097439 0.050044417 0.049955152 0.050124448
0.049967196 0.050117455 0.050129075 0.050023168 0.050159998 0.050072044
0.050058145 0.050099101 0.050110299 0.050108146 0.050098605 0.050156616
0.050191447 0.050073307 0.050151058 0.050164085 0.050004229 0.049994387
0.050162777 0.050113544 0.050120726 0.050080728 0.050113473 0.050032631
0.050026301 0.049993291 0.049989007 0.049979661 0.050044972 0.050043263
0.050014175 0.049924154 0.049975023 0.050027326 0.04996375 0.049931556
0.049980663 0.049968287 0.050032701 0.050076246 0.04989304 0.049950853
0.049910698 0.049958538 0.050053488 0.049854796 0.049929991 0.049944676
0.049928248 0.049931362 0.049953159 0.049972054 0.049821351 0.049863033
0.049746007 0.049746007 0.049779419 0.049837217 0.04993581 0.049888562
0.049876627 0.049877655 0.049777098 0.049787883 0.049871042 0.049768638
0.04977959 0.049943466 0.049964827 0.049960002 0.049914818 0.04990688
0.049900409 0.049963217 0.049928013 0.049918793 0.050069761 0.050056253
0.049951602 0.049879946 0.049950782 0.050080411 0.050010733 0.049974594
0.050040808 0.049959544 0.050010443 0.049964909 0.050069004 0.050025944
0.050029386 0.050082266 0.050013099 0.050069187 0.05000161 0.050145343
0.050141864 0.05014519 0.050026152 0.05014297 0.050221048 0.050039511
0.050130188 0.050219752 0.050178796 0.050073497 0.050047763 0.049953341
0.050054267 0.050108045 0.05004308 0.050121784 0.050046567 0.0500286
0.049963832 0.049936682 0.050006639 0.050052159 0.050041884 0.049823385
0.049884707 0.049953483 0.049936429 0.050030384 0.050099101 0.050073352
0.049952038 0.050099287 0.049989127 0.050149117 0.050161012 0.050060056
0.050260011 0.050138079 0.050091259 0.050141428 0.050120771 0.050151691
0.050175432 0.050225738 0.050233427 0.050133426 0.05013606 0.050170258
0.050038185 0.050034236 0.050232261 0.050152581 0.050212201 0.050073929
0.050076183 0.050077043 0.050065894 0.050046425 0.050070569 0.049987607
0.04996727 0.050037187 0.050016388 0.049928151 0.049948633 0.049974166
0.049968962 0.04989988 0.049968284 0.050013181 0.050053455 0.050026428
0.049824186 0.0498989 0.049890868 0.049945336 0.049974833 0.049818646
0.049907584 0.049880039 0.049886201 0.04992469 0.049869891 0.049895048
0.049819194 0.049778044 0.04972101 0.04972101 0.049690336 0.049786497
0.049871001 0.049826346 0.049790263 0.049862619 0.04976245 0.049744971
0.049785934 0.049665891 0.04973181 0.049921539 0.049935643 0.0499552
0.049888063 0.049860206 0.049910981 0.049918327 0.049862333 0.049902387
0.049994189 0.050005451 0.049943447 0.049886715 0.049892861 0.050043512
0.050023761 0.050064314 0.050077721 0.04997012 0.05002543 0.049996749
0.050053991 0.050051097 0.050084669 0.05006136 0.050024588 0.050180364
0.050099567 0.050104368 0.050173782 0.05015466 0.050086267 0.050210632
0.050280739 0.050092034 0.05016556 0.050282784 0.050177857 0.050137784
0.050074764 0.049997821 0.050131667 0.050118737 0.050076686 0.05015704
0.050057292 0.050010979 0.049967151 0.04996578 0.050074793 0.050023299
0.050002094 0.049855627 0.049873617 0.050003666 0.049960166 0.050081354
0.050108019 0.050081257 0.049978003 0.050066065 0.050035037 0.050186004
0.050168004 0.050088007 0.050324034 0.05020114 0.050171286 0.050223988
0.050159257 0.050217848 0.050249536 0.050280172 0.050264638 0.050222963
0.050135866 0.050180223 0.050096244 0.050085232 0.050272789 0.050183114
0.050280619 0.05008103 0.050065205 0.050138116 0.050117593 0.050087072
0.050118521 0.05001523 0.049925957 0.050004154 0.050018787 0.049940892
0.049923949 0.04993993 0.049956743 0.049890161 0.049947187 0.05003548
0.050058395 0.049947701 0.049779903 0.049875773 0.049859192 0.049894664
0.049874827 0.049755063 0.049838893 0.049790472 0.049860343 0.049894132
0.049751699 0.049818128 0.04981311 0.049693048 0.049714036 0.049714036
0.049594179 0.049715906 0.049777906 0.049744394 0.049719576 0.049870707
0.049733616 0.049668424 0.0497129 0.049582634 0.049664374 0.049847789
0.04986814 0.049949024 0.049863648 0.04982318 0.049893361 0.049873631
0.049827494 0.049894065 0.049937263 0.049937416 0.049908478 0.049876705
0.049850665 0.04998254 0.050030269 0.050130446 0.050101355 0.049981732
0.05003655 0.050036304 0.050066967 0.050090224 0.05015038 0.050049223
0.050068438 0.050298318 0.050205983 0.050081216 0.0501903 0.05017269
0.050149959 0.050275978 0.050333295 0.050179388 0.050220925 0.050352149
0.050176982 0.050174829 0.050134342 0.050072268 0.050166383 0.050110977
0.050135594 0.050174698 0.050060339 0.050049536 0.049999375 0.0499929
0.05011408 0.050002672 0.04996625 0.049905978 0.049875557 0.050073791
0.05000712 0.050114281 0.05013302 0.050088152 0.050039999 0.050053
0.050094001 0.050225183 0.050171074 0.050102308 0.050346099 0.050253399
0.050279353 0.050335709 0.050229639 0.050313435 0.050305746 0.050332882
0.050299399 0.050304953 0.05015327 0.050206698 0.050173365 0.050142776
0.050286409 0.050208218 0.050322291 0.050106488 0.050087836 0.050202105
0.050169475 0.05013841 0.050137367 0.050047491 0.049929745 0.04995279
0.05001051 0.049941707 0.049908981 0.049927019 0.049937125 0.049878914
0.049937967 0.050033942 0.050010268 0.04985489 0.04976511 0.04987359
0.049815536 0.049808007 0.049763266 0.049676668 0.049730141 0.049716175
0.0498349 0.04983044 0.049637754 0.049743332 0.049774118 0.049611032
0.049713019 0.049713019 0.049492061 0.049633335 0.049667656 0.049636342
0.049658671 0.049871858 0.049698234 0.049567997 0.049633019 0.049521267
0.049599443 0.049736511 0.04977547 0.049896784 0.049845722 0.049794
0.049856436 0.049847919 0.04980782 0.049885429 0.049910039 0.049864113
0.049871642 0.049856648 0.049840916 0.049929772 0.050002914 0.050131172
0.050089076 0.050010476 0.050053056 0.050061699 0.050106429 0.050146215
0.050206792 0.050068446 0.050143838 0.050391637 0.050292619 0.050094366
0.050207026 0.050219037 0.050223008 0.050339978 0.050371833 0.0502869
0.050302673 0.050419316 0.0502006 0.050187968 0.050203186 0.050169159
0.050157614 0.050104626 0.050207481 0.050188787 0.050078198 0.050126165
0.050060753 0.050007094 0.050117508 0.05000025 0.049947385 0.049973261
0.049906496 0.0501277 0.050078217 0.050137162 0.050163079 0.050114065
0.050115999 0.05006903 0.050168056 0.050268471 0.050205298 0.050105073
0.05034437 0.050294135 0.050382745 0.05044863 0.05032827 0.050435152
0.050360303 0.050410267 0.050339371 0.050350759 0.050180394 0.050254889
0.050265387 0.050206847 0.050296105 0.050237574 0.050347518 0.05015558
0.050148468 0.05026114 0.050222136 0.050208114 0.050134778 0.05006906
0.049949218 0.049894542 0.049984388 0.04992627 0.049902007 0.049914777
0.049913477 0.049852032 0.049951505 0.050020684 0.049911063 0.049757428
0.04976064 0.049860049 0.049766086 0.049712159 0.049651973 0.049604516
0.049614973 0.049673479 0.049772918 0.049735714 0.049549982 0.049659695
0.049687162 0.049539033 0.049702998 0.049702998 0.049381018 0.04954657
0.049553458 0.049495798 0.049590755 0.049828783 0.049655426 0.049470808
0.049522523 0.049454775 0.049548522 0.049616925 0.04968426 0.049787354
0.049831461 0.049762838 0.049800161 0.049834821 0.049786985 0.049862042
0.049896173 0.049799886 0.049842048 0.049848367 0.049859706 0.049900297
0.049936078 0.050080091 0.050053753 0.050055172 0.050072163 0.050069522
0.050156295 0.050207458 0.050254893 0.050124891 0.050234545 0.050444782
0.050347388 0.050151594 0.050250132 0.050298806 0.050325181 0.050417423
0.050383557 0.050396431 0.050405145 0.050483368 0.050260682 0.050205488
0.050265845 0.050260596 0.050133403 0.05012913 0.050284062 0.050207879
0.050121542 0.050198589 0.050136328 0.050021339 0.050093882 0.050020881
0.049963437 0.050056253 0.049968433 0.050141495 0.050154418 0.050160103
0.050190233 0.050178017 0.050184008 0.050110061 0.050261151 0.050322704
0.050283656 0.050123975 0.050357133 0.050336603 0.050459009 0.050543018
0.050437823 0.050570976 0.050442535 0.050527457 0.05038983 0.050367877
0.050214771 0.050317649 0.050360527 0.050276246 0.050324291 0.050280321
0.050373789 0.050227731 0.050240334 0.050314289 0.050285112 0.05027527
0.050111771 0.050073754 0.049955938 0.049840238 0.049945299 0.049900528
0.049902271 0.049884345 0.049879503 0.049814526 0.049969841 0.049987737
0.049792659 0.049666706 0.049749386 0.049807556 0.0497192 0.049638502
0.049556885 0.049547091 0.049509771 0.049634352 0.049659088 0.049608208
0.049483202 0.049563147 0.0495672 0.049483098 0.049657021 0.049657021
0.04925603 0.049463499 0.049444463 0.0493307 0.04950884 0.049735088
0.04957949 0.049375828 0.049387369 0.049373697 0.049506735 0.049497277
0.049607418 0.049644634 0.049807243 0.049714271 0.049709219 0.049803339
0.049760066 0.049828235 0.049879678 0.049769256 0.049816746 0.049852658
0.049883515 0.049880352 0.04985569 0.050030392 0.050024752 0.050092291
0.050084598 0.050075483 0.050196927 0.050250843 0.05029504 0.050206814
0.050323967 0.050470106 0.050379947 0.050245959 0.050335921 0.050398674
0.050462868 0.050522931 0.050372068 0.050494552 0.050524779 0.050556034
0.050356209 0.050240517 0.050319668 0.05032476 0.050127022 0.050203536
0.050365143 0.050236117 0.050189316 0.050240379 0.050207682 0.050053425
0.050049935 0.050058302 0.050027329 0.05014202 0.050041419 0.050123435
0.050206594 0.050182231 0.050228421 0.050282024 0.050244004 0.050165061
0.050362155 0.050396733 0.05038996 0.050182313 0.050418276 0.050405253
0.05051643 0.050617885 0.050539702 0.050688699 0.050554011 0.050680369
0.05046032 0.050398499 0.050265342 0.050379843 0.050453387 0.050359
0.050383922 0.050341357 0.050410502 0.050313819 0.050345048 0.050364248
0.050355177 0.050303854 0.050071441 0.050064806 0.049940672 0.049805108
0.049891423 0.049873531 0.049912076 0.049839389 0.049834698 0.049773898
0.049942628 0.049907513 0.049693044 0.049592402 0.049721207 0.049719129
0.049678806 0.049594909 0.049489137 0.049486183 0.049395002 0.049562018
0.049509834 0.049449947 0.049414296 0.04946046 0.049444269 0.049445238
0.04955909 0.04955909 0.049120139 0.049380183 0.049340766 0.049175233
0.049418755 0.049620636 0.049449582 0.049251068 0.049264874 0.049295671
0.049452469 0.049357805 0.049535725 0.049502552 0.049752019 0.049632847
0.049572855 0.049720563 0.049731322 0.049804494 0.049866688 0.049787521
0.049789708 0.04984517 0.049877409 0.049845863 0.049801279 0.050023444
0.050017718 0.050093234 0.050082486 0.050095148 0.050223514 0.050264921
0.05031484 0.05029276 0.050402351 0.050491899 0.050414007 0.050361928
0.050455298 0.050492439 0.050615262 0.050661128 0.050360665 0.050575446
0.050662596 0.05065383 0.050481707 0.050288562 0.050363671 0.050358057
0.050149005 0.050319053 0.050450448 0.050276987 0.050273407 0.05025446
0.050251197 0.050098166 0.049991608 0.050096232 0.050125167 0.050212868
0.050083496 0.050098766 0.050213717 0.050197884 0.050295591 0.050404154
0.050313007 0.050210007 0.050459012 0.050501376 0.050502785 0.050283626
0.050539792 0.050520428 0.050588548 0.050692093 0.050618604 0.050751213
0.050672047 0.050846532 0.05056043 0.050482638 0.050346211 0.050435927
0.050540466 0.050459441 0.050468776 0.050402969 0.050457414 0.050395671
0.050428834 0.050411768 0.050414506 0.050271962 0.050016023 0.050047331
0.049913827 0.049795426 0.049814586 0.049845841 0.049940266 0.049800579
0.049797144 0.049736191 0.049829505 0.049768887 0.049627431 0.049532205
0.049678702 0.049626995 0.049640555 0.049560301 0.049446441 0.049392216
0.049246185 0.049444567 0.049360905 0.049280617 0.049320359 0.049369417
0.049341429 0.049416371 0.049408209 0.049408209 0.048991445 0.049292684
0.049235426 0.049072485 0.049330413 0.049508724 0.049285099 0.049081188
0.049195077 0.049243111 0.049358506 0.049180258 0.049451675 0.049383491
0.049641896 0.049518764 0.049420234 0.049581859 0.049700204 0.049800634
0.049864687 0.049845215 0.049752876 0.049798783 0.049824771 0.049790058
0.049799744 0.050062913 0.050028484 0.050050419 0.050072212 0.050133605
0.050244272 0.050262831 0.050298929 0.050363161 0.050474837 0.050536312
0.050469544 0.050480321 0.050576143 0.050548036 0.05074586 0.05081876
0.050389435 0.050647851 0.050819691 0.050777685 0.050620724 0.050346393
0.050406601 0.050362114 0.050195552 0.050442077 0.050532881 0.050327063
0.050355081 0.05025842 0.050247978 0.050122634 0.049919132 0.050112586
0.050209157 0.050255943 0.050063789 0.050079729 0.050182056 0.050212499
0.050397877 0.050505798 0.050394218 0.050218172 0.050539296 0.050636001
0.050607115 0.050418355 0.050693732 0.050677292 0.050704651 0.050782748
0.050669171 0.0507541 0.05076208 0.050984632 0.050688691 0.050628435
0.050472654 0.05049406 0.050616805 0.050571337 0.050560225 0.05044844
0.050503083 0.050459392 0.050469488 0.05045481 0.050452959 0.050195236
0.049959857 0.050018243 0.049887322 0.049803041 0.049707975 0.0498209
0.049985968 0.049787864 0.049782127 0.04971021 0.04964003 0.049604069
0.049582798 0.049468111 0.049622286 0.049562216 0.049591709 0.049501635
0.049410813 0.049243428 0.04907468 0.049309816 0.04923756 0.049123716
0.049192518 0.049297098 0.049265698 0.049382392 0.049224317 0.049224317
0.048901901 0.049197178 0.049126275 0.049044434 0.049239121 0.049390633
0.049141187 0.048901267 0.049183965 0.049207635 0.049215544 0.048989624
0.049357187 0.049295321 0.049465299 0.049387868 0.049324125 0.049423043
0.049655106 0.049805138 0.049867362 0.04989538 0.049700953 0.049723618
0.049752459 0.049733762 0.0498555 0.050117653 0.050043743 0.049989156
0.050070271 0.050178681 0.05027625 0.050269805 0.050247438 0.050418578
0.050546426 0.050616521 0.050546553 0.05059066 0.050667055 0.050556242
0.050831836 0.050970033 0.050495993 0.050720736 0.050985042 0.050906226
0.050751884 0.050425123 0.05046124 0.050357353 0.050246254 0.050553046
0.050580315 0.050379001 0.050392121 0.050269999 0.05020009 0.050079152
0.049844749 0.050082687 0.050224423 0.050265212 0.049982507 0.050055075
0.050130021 0.050231673 0.050511688 0.050555464 0.050468378 0.050182518
0.050601102 0.050774824 0.050694518 0.050590225 0.050833195 0.050849114
0.050867964 0.050893247 0.050700482 0.050739024 0.050807752 0.05105805
0.050839756 0.05081553 0.05065592 0.050576333 0.050679225 0.050673697
0.050638545 0.05047724 0.050537098 0.050501879 0.050469317 0.050504565
0.050477356 0.050121482 0.0499322 0.049974166 0.049866602 0.049804986
0.049594454 0.0497985 0.05002775 0.049821101 0.049799394 0.049704902
0.049438477 0.049476333 0.04953872 0.049385391 0.04955272 0.049529914
0.049516279 0.049402297 0.049358442 0.049058273 0.048915505 0.049190447
0.049144141 0.048995167 0.049048707 0.049239837 0.049212959 0.049328372
0.049035285 0.049035285 0.048872259 0.049098998 0.049015921 0.049066491
0.049122367 0.04923559 0.049059603 0.048780173 0.049185831 0.049144071
0.049045406 0.04884918 0.049272832 0.049227241 0.04924095 0.049278766
0.049346019 0.049292833 0.049592365 0.049793266 0.049839377 0.049891427
0.049640462 0.049666908 0.049713489 0.049713805 0.049944773 0.050144866
0.050056458 0.049955957 0.05008835 0.050222486 0.050332773 0.050302532
0.050201703 0.050489731 0.05062446 0.050724402 0.050630994 0.050695844
0.05070965 0.050541706 0.050880399 0.051088694 0.050682005 0.050802529
0.051124327 0.051011253 0.050850462 0.050534006 0.050538 0.050372481
0.050297029 0.050634291 0.050569177 0.050405964 0.050348133 0.050281223
0.050129116 0.049945001 0.049786508 0.049996074 0.050135784 0.050233386
0.049869891 0.05000877 0.050064936 0.050245196 0.05059379 0.050543156
0.050514687 0.050129693 0.050649568 0.050866649 0.050754175 0.050792947
0.050939582 0.050994165 0.051060013 0.051012021 0.050732292 0.050772209
0.050838001 0.051054694 0.051003691 0.051009659 0.05088973 0.050707236
0.050735652 0.050751768 0.050694656 0.050513715 0.050552435 0.050533511
0.050463695 0.050570421 0.050504167 0.050094672 0.049961191 0.049921814
0.049860597 0.049782716 0.049531534 0.049777653 0.050033025 0.049906563
0.049840454 0.049723759 0.049296889 0.049439117 0.049488213 0.049275104
0.049466845 0.04950719 0.049408093 0.049269978 0.049269665 0.048894063
0.048804127 0.049085427 0.04906369 0.048891477 0.048924726 0.049193926
0.049171042 0.049242437 0.048865102 0.048865102 0.04887728 0.048999116
0.048912171 0.049078118 0.048974581 0.049043842 0.04903426 0.04874745
0.049134012 0.04901804 0.048895597 0.048823319 0.049222458 0.049161747
0.049025659 0.049227402 0.049472872 0.049225811 0.049517352 0.049746934
0.049753543 0.049820691 0.049597498 0.049667805 0.049741723 0.049745619
0.050035872 0.050124094 0.050063588 0.04999274 0.050126199 0.050259124
0.050398085 0.050346639 0.050221123 0.050607808 0.05070594 0.050830167
0.050702065 0.050813723 0.050717309 0.050557561 0.050922573 0.051152635
0.050915252 0.050901029 0.051205017 0.051064249 0.050922036 0.050661035
0.05064185 0.050422806 0.050370913 0.050655834 0.050513763 0.050378133
0.050223961 0.050265752 0.050055545 0.04975218 0.049747277 0.049876072
0.049949706 0.050138243 0.049760826 0.049944367 0.0499795 0.0502235
0.050603896 0.050477292 0.050525829 0.050117966 0.050690569 0.050878871
0.050771449 0.051003102 0.051033013 0.051073276 0.051250741 0.051109597
0.050790325 0.050889548 0.050917033 0.051002003 0.051174138 0.051170006
0.051136263 0.050892886 0.050808184 0.050814066 0.050728183 0.050578184
0.050551925 0.050564028 0.050487533 0.050644077 0.050531436 0.050118197
0.050050385 0.049892295 0.04988087 0.049746498 0.049572378 0.049751155
0.049979094 0.050024163 0.049881037 0.049757615 0.049248289 0.049488675
0.049434319 0.049142834 0.049370594 0.04946585 0.049281783 0.049133714
0.049147513 0.048809458 0.048747107 0.048956368 0.048976332 0.048803218
0.048855688 0.049154524 0.049112953 0.049111582 0.048726998 0.048726998
0.048848994 0.048891075 0.048808187 0.049021181 0.048824839 0.048852596
0.04902092 0.048771277 0.048987061 0.048842255 0.048811711 0.048921186
0.049205024 0.049089901 0.04889337 0.049239062 0.049607277 0.049218696
0.049443729 0.049662292 0.049619615 0.04972066 0.049602602 0.049729761
0.049814817 0.0498146 0.050098758 0.050067563 0.050062723 0.050100535
0.050179776 0.050292671 0.050433375 0.050381236 0.050343595 0.050781202
0.050796591 0.050903253 0.050755337 0.050956603 0.050729264 0.050648287
0.050984155 0.051156022 0.051141143 0.051008146 0.051222086 0.051046092
0.051001642 0.05077754 0.050747193 0.050521549 0.050470077 0.050623544
0.050434075 0.050300885 0.050061159 0.05020766 0.049982876 0.049557623
0.049719028 0.049759448 0.049699899 0.0499449 0.049662493 0.049872637
0.04986592 0.050132196 0.050520737 0.05037643 0.050512772 0.050188199
0.050715405 0.050828673 0.050755296 0.051189214 0.051128201 0.05110763
0.051399637 0.051180672 0.050902627 0.051084142 0.051096022 0.050988004
0.051315531 0.05128542 0.051337004 0.051103566 0.050916545 0.050893717
0.050748739 0.050663412 0.0505463 0.050598502 0.050557762 0.050696474
0.050540779 0.050155438 0.050158128 0.049916111 0.049940672 0.049738679
0.049717579 0.049720816 0.049878079 0.050122727 0.049886655 0.049777344
0.049286272 0.049571037 0.049378797 0.04901024 0.049275633 0.04939767
0.049162153 0.049030241 0.04902111 0.04881255 0.048731793 0.048771523
0.04887037 0.04873069 0.048842058 0.049102455 0.049015865 0.04893567
0.048630092 0.048630092 0.048725612 0.048760016 0.048686139 0.048881933
0.048724111 0.048706941 0.048971944 0.048781473 0.048772085 0.048675355
0.048797283 0.049076147 0.049188592 0.049025699 0.048885129 0.049282964
0.049638823 0.04924652 0.049381629 0.049554002 0.049492549 0.049645659
0.049667414 0.049816336 0.049868006 0.04989044 0.050117683 0.050010663
0.050055407 0.050242674 0.050253648 0.050328858 0.050407384 0.050399724
0.050549913 0.050991133 0.050912585 0.050944366 0.050812684 0.051128432
0.05080026 0.050834011 0.051056802 0.051137339 0.051307693 0.051117998
0.051199269 0.050988659 0.051098503 0.05087743 0.050820436 0.050660793
0.050581586 0.050576206 0.05035248 0.050201815 0.049930762 0.050104477
0.049892355 0.049406372 0.049698152 0.049650855 0.049427148 0.049632646
0.049559966 0.049787521 0.049728815 0.049966324 0.050353631 0.050264519
0.050479066 0.05032742 0.0507176 0.050769139 0.050754063 0.05132344