# vtk DataFile Version 3.0
axinsert(project(permute(???,2,0,1),0,L2),2)
ASCII
DATASET STRUCTURED_POINTS
DIMENSIONS 128 256 1
ORIGIN 0 0 0
SPACING 1 1 1
POINT_DATA 32768
SCALARS nrrd71823 float
LOOKUP_TABLE default
0.050019003 0.050034024 0.050005056 0.050022002 0.050003231 0.049962003
0.050000001 0.050005 0.04999401 0.049981035 0.049984127 0.049996007
0.049974047 0.050023094 0.050029039 0.050017118 0.050022017 0.05004812
0.050005179 0.049974009 0.049974218 0.049971078 0.049989037 0.050019208
0.050023105 0.049929999 0.049972005 0.050060328 0.050011244 0.050000299
0.050007232 0.049918145 0.049986418 0.050020117 0.049998287 0.050025422
0.050009105 0.049989074 0.049997099 0.050019082 0.050031077 0.050035059
0.049988005 0.049955007 0.05001105 0.04999502 0.050011139 0.050016291
0.049988218 0.05000921 0.050000113 0.050011031 0.049934998 0.049994551
0.050032999 0.050013222 0.049996998 0.049966406 0.049955003 0.050015595
0.050032005 0.049979154 0.050011314 0.050015036 0.049930058 0.050008051
0.050021011 0.050011814 0.049974028 0.049978152 0.050001446 0.050015699
0.050024256 0.050018817 0.050004076 0.050004534 0.049974002 0.0499896
0.050026089 0.049990196 0.049995046 0.050010316 0.04998805 0.050015152
0.050024003 0.049973004 0.050018303 0.050032005 0.050005008 0.049968004
0.049991116 0.049989041 0.050009053 0.050040018 0.050004024 0.049999118
0.049983017 0.049984224 0.049956009 0.050043643 0.050040033 0.04998108
0.049998 0.050011039 0.049980044 0.050008234 0.050046191 0.049979001
0.049951009 0.049978081 0.050024115 0.05000117 0.050014 0.049991
0.050029013 0.050062001 0.04999141 0.049913015 0.049954094 0.050008111
0.050002072 0.049999159 0.050006051 0.050068092 0.050020613 0.049984008
0.049984027 0.049984027 0.049989078 0.050049011 0.050028086 0.050078999
0.049954001 0.04990207 0.050010007 0.049957041 0.050004318 0.04999001
0.049961194 0.049977016 0.049982198 0.050034013 0.050142318 0.05004207
0.049976159 0.050065029 0.049990278 0.049977187 0.049929127 0.049936265
0.049984109 0.049994364 0.050071225 0.049968336 0.049919009 0.050022379
0.050016202 0.050016332 0.050024331 0.049868207 0.049885176 0.04998979
0.04998384 0.050001644 0.050114054 0.050067082 0.049994487 0.05004001
0.050051503 0.050033215 0.049992915 0.049955029 0.050040543 0.049985055
0.050063282 0.049989011 0.049980711 0.049992006 0.049930852 0.0500312
0.049887706 0.049949232 0.05005075 0.049998511 0.049940962 0.050051928
0.049983278 0.049977273 0.050062511 0.049940601 0.050030373 0.050018445
0.049869519 0.050017361 0.049983874 0.049938031 0.050018892 0.049909472
0.049926028 0.050086405 0.050083917 0.050015967 0.050072361 0.050050803
0.050053537 0.049979109 0.049976211 0.050049614 0.049989 0.049993355
0.050010137 0.050064102 0.050106131 0.049888 0.049980257 0.050077073
0.049986105 0.049956091 0.050014164 0.050040137 0.049961001 0.050064288
0.04995301 0.04992339 0.050008167 0.049991127 0.049917053 0.05007023
0.050144032 0.049972024 0.049945071 0.050022222 0.05001004 0.050056055
0.050093029 0.049909186 0.049944002 0.050087087 0.050000504 0.049955126
0.050022297 0.049982145 0.050026171 0.050121199 0.050031014 0.049866021
0.049864203 0.049965132 0.049969055 0.050020278 0.050117094 0.050118007
0.050021023 0.049967002 0.049930058 0.049930058 0.049954072 0.050015017
0.050015125 0.050055005 0.049930345 0.049973022 0.049973071 0.049930133
0.05004603 0.049964052 0.049990274 0.049995001 0.050018158 0.049993005
0.050100315 0.050073102 0.04992323 0.04997617 0.04991265 0.049990881
0.049967811 0.049965594 0.049969677 0.049975798 0.050073449 0.05010175
0.049928084 0.049900755 0.050010383 0.050009701 0.049975596 0.049986176
0.049868111 0.049875882 0.05002366 0.049967423 0.050150793 0.050112486
0.050024036 0.04999527 0.0499827 0.050037682 0.05001628 0.050022423
0.049982954 0.050030991 0.050074469 0.049929012 0.050010089 0.050002806
0.049901716 0.050021742 0.049954686 0.049909443 0.049993955 0.049984835
0.049901996 0.050110992 0.050055169 0.049959842 0.050003104 0.049991429
0.05004061 0.049993444 0.049912687 0.049947135 0.049943708 0.049888946
0.050038066 0.049902033 0.049878102 0.050117105 0.050064206 0.050011352
0.050093934 0.050088421 0.050147675 0.05005613 0.049922779 0.050172299
0.050036039 0.04992155 0.050053317 0.050050333 0.050096624 0.049914435
0.049953263 0.050058313 0.049978424 0.049960233 0.04996033 0.050087824
0.049992163 0.050027397 0.049941137 0.049919337 0.050077021 0.050014067
0.049965013 0.050001007 0.050127257 0.049996063 0.049949147 0.050034001
0.05002109 0.050104 0.050014008 0.049889218 0.050016999 0.050179064
0.049978014 0.049940072 0.04999901 0.049989149 0.049982015 0.050010338
0.05009212 0.049972169 0.049879011 0.049963035 0.049960069 0.050013039
0.050181061 0.050070003 0.049981005 0.049955115 0.049960002 0.049960002
0.049986027 0.050000004 0.049968056 0.050008032 0.049932241 0.050001014
0.049933247 0.04996907 0.050031088 0.049899317 0.050024312 0.05001824
0.050012276 0.04999629 0.050008208 0.050057858 0.049934559 0.049958866
0.049844548 0.049947474 0.050000936 0.049951158 0.049956296 0.05003038
0.050060648 0.05009966 0.049935881 0.049908523 0.050017506 0.049986273
0.049933836 0.050038498 0.049905837 0.049834952 0.050080664 0.049980614
0.050090589 0.050056275 0.050046403 0.049966086 0.049925555 0.050073389
0.050052632 0.050025944 0.049939532 0.050086133 0.050053172 0.049876448
0.050007671 0.050048899 0.049943265 0.050014231 0.049977116 0.049897194
0.049975086 0.049990468 0.049916226 0.050039053 0.050019979 0.049983699
0.049956009 0.05003443 0.050024822 0.049995013 0.04992763 0.049878776
0.049984522 0.049895924 0.050013561 0.049925175 0.049910929 0.050090581
0.050055478 0.050024305 0.050065216 0.050079864 0.050124463 0.050118677
0.04993391 0.050258718 0.050118156 0.04988154 0.050050296 0.050008398
0.050066702 0.049999546 0.050007731 0.050024699 0.050019007 0.049978338
0.049900427 0.050080355 0.050058395 0.05005122 0.049980156 0.049984068
0.050108023 0.049999088 0.049988046 0.049953017 0.050089125 0.05001314
0.049987052 0.050036006 0.050043032 0.050120022 0.049938049 0.049915042
0.050026 0.050142024 0.050007045 0.049958009 0.049967006 0.049980078
0.049970027 0.049954101 0.050095096 0.050030153 0.049931001 0.050003003
0.049961023 0.050013009 0.050173044 0.050049029 0.049927 0.049957197
0.050034005 0.050034005 0.049986005 0.049988039 0.049939007 0.049970075
0.049945176 0.049967043 0.04992545 0.04999806 0.049957324 0.049880426
0.050009362 0.050012711 0.049990453 0.050028 0.04996638 0.049986362
0.049928039 0.049979638 0.04983075 0.049905594 0.050019063 0.049903691
0.049945615 0.050080847 0.050038055 0.050057437 0.049947586 0.049972128
0.050037701 0.049959958 0.049936116 0.049996499 0.049947038 0.049903065
0.050081868 0.049990226 0.050024852 0.04999708 0.050038405 0.049994152
0.049934026 0.05004536 0.050073612 0.050036337 0.04995146 0.050077047
0.050037943 0.049858287 0.049956918 0.050058331 0.049993128 0.050033618
0.04997256 0.049904767 0.04995954 0.049964126 0.049958944 0.050011512
0.049960252 0.049963523 0.049924877 0.050013907 0.049990624 0.050011672
0.049935084 0.049855866 0.050028469 0.049900077 0.050003566 0.049974214
0.049941543 0.050062936 0.050099108 0.050042003 0.050031733 0.050052371
0.050067302 0.050116558 0.049932368 0.050263654 0.05018184 0.049903966
0.050059948 0.050005622 0.050069846 0.050068244 0.050085612 0.05000212
0.050065622 0.050062656 0.049967561 0.050079055 0.050050508 0.050089154
0.050011225 0.049999055 0.050072167 0.049988255 0.050011199 0.049959138
0.05004812 0.050044373 0.050034024 0.050058059 0.050088011 0.050088003
0.049908012 0.049951002 0.050044004 0.050092001 0.050009023 0.049973007
0.049939007 0.049960032 0.049976014 0.049966004 0.050069999 0.050053053
0.049981005 0.050020002 0.049947031 0.050034005 0.050157044 0.050007019
0.049896006 0.049975082 0.050084002 0.050084002 0.049953002 0.049987089
0.049940005 0.049901109 0.049951188 0.049924113 0.049920432 0.050001163
0.049905527 0.049888335 0.049962427 0.049997732 0.049958508 0.050019138
0.049955904 0.049927279 0.049905356 0.0499967 0.049862236 0.04988125
0.050002333 0.049866896 0.049942657 0.050102837 0.050000466 0.050027747
0.049971852 0.050038215 0.050035007 0.049923602 0.049982484 0.049929626
0.049966481 0.049994454 0.050051369 0.049989875 0.049975324 0.049985599
0.050028283 0.05003161 0.050014969 0.049996197 0.050054614 0.050051615
0.049981531 0.05002521 0.050024379 0.049877524 0.049884852 0.05002654
0.050028518 0.050075006 0.049965944 0.049895298 0.049938288 0.04993676
0.04999157 0.050007284 0.049905859 0.049923267 0.049919628 0.049967285
0.049963892 0.05003598 0.049919456 0.049845465 0.050051644 0.049894195
0.050000943 0.050020434 0.049935862 0.050039798 0.050150637 0.050063014
0.050033472 0.050025489 0.050025869 0.050108269 0.049938671 0.050208926
0.05019509 0.04996115 0.050084431 0.05002455 0.050100859 0.050133646
0.050147396 0.050019808 0.050098702 0.050143264 0.050088063 0.050085224
0.050020088 0.050119292 0.050032649 0.049999177 0.050024454 0.049989365
0.050030373 0.049983233 0.050009206 0.050082497 0.050100058 0.050120104
0.050099023 0.050050098 0.049938001 0.049968999 0.050059009 0.050060999
0.049984004 0.049978044 0.049936999 0.049961023 0.050005004 0.049986005
0.050046008 0.050053008 0.049996007 0.050039999 0.049952071 0.050029006
0.050139017 0.049966998 0.049883999 0.049986999 0.050110001 0.050110001
0.049928006 0.049983043 0.049931001 0.049814135 0.049942199 0.049900241
0.049898311 0.049981456 0.049899574 0.049904402 0.049920432 0.049993653
0.049923465 0.049950998 0.049952339 0.049912058 0.049882334 0.049985319
0.049904589 0.049876913 0.049950611 0.04985087 0.049957685 0.050098572
0.049948912 0.050005589 0.050005179 0.050081111 0.050001666 0.049893878
0.050040875 0.049889985 0.049962401 0.050039049 0.050025061 0.05000338
0.049943686 0.050009724 0.050033353 0.05004352 0.050099365 0.049955431
0.050018821 0.050051022 0.050006989 0.049982626 0.049995542 0.049921222
0.049839888 0.049989529 0.05004932 0.050094347 0.049944416 0.049865022
0.049918108 0.049933448 0.050005894 0.049984183 0.049866743 0.049896963
0.04992431 0.04991791 0.049936708 0.050040826 0.049904127 0.049841098
0.05005008 0.049883533 0.049986403 0.050060201 0.049917467 0.050004642
0.050161783 0.050060049 0.050082505 0.050021343 0.050016124 0.050127476
0.049970198 0.050158318 0.050176166 0.050020885 0.050109316 0.050056338
0.050146293 0.050204024 0.050172918 0.050082743 0.050129615 0.050154045
0.050173871 0.050073106 0.050034247 0.050160673 0.050053455 0.050040502
0.050015695 0.050007373 0.050049417 0.050008211 0.049977209 0.050109334
0.050157111 0.050179116 0.050091006 0.050044116 0.050000001 0.049975
0.050049003 0.050035018 0.049955003 0.049979091 0.049959004 0.049984019
0.050045017 0.049973004 0.050023001 0.050054006 0.050003 0.050078999
0.049977053 0.049999036 0.050125007 0.049959023 0.049882017 0.04998403
0.050095003 0.050095003 0.049922004 0.049959011 0.049895022 0.049751163
0.04991018 0.049890451 0.049857244 0.049946863 0.049912538 0.049924731
0.049903445 0.049990829 0.049896561 0.049868092 0.049948364 0.049924117
0.049873229 0.049956135 0.049931608 0.04986893 0.049881943 0.049849942
0.049982894 0.050069638 0.049896557 0.049990501 0.050026733 0.05009139
0.049964726 0.049896944 0.050073303 0.049878627 0.049950503 0.050039701
0.050011612 0.050039764 0.049937896 0.050030671 0.050048769 0.050028399
0.050142121 0.049939081 0.049984239 0.050036632 0.050028458 0.049971208
0.049952582 0.049953993 0.049850255 0.049981315 0.050045181 0.050067741
0.049902998 0.049829599 0.04990273 0.049956024 0.050013114 0.049934864
0.049842611 0.049877539 0.049925119 0.049869664 0.04989443 0.050010007
0.049906954 0.049846858 0.050022721 0.049878109 0.049956825 0.050088268
0.04991246 0.049954381 0.050132059 0.050024837 0.050151456 0.050049827
0.050024077 0.050165441 0.050029863 0.050146297 0.050159898 0.050082482
0.050123747 0.050105087 0.05020221 0.050254487 0.050170459 0.050162539
0.050165981 0.050114669 0.050207529 0.050047245 0.050093897 0.050213169
0.050071049 0.050118938 0.050054893 0.050050404 0.050075386 0.050042223
0.049972136 0.050118141 0.050180104 0.05019011 0.050105136 0.050075036
0.050053012 0.049975999 0.050023008 0.050019018 0.049935006 0.049978051
0.049991008 0.050017003 0.050071016 0.049953002 0.049997006 0.050048009
0.050028 0.050105006 0.050003 0.049990032 0.050124016 0.049981039
0.049890086 0.049963072 0.050039019 0.050039019 0.04992 0.049914017
0.049841117 0.049726211 0.049857177 0.04988065 0.049812272 0.049910117
0.049917504 0.049933191 0.04989861 0.049971364 0.049879946 0.049819559
0.049945261 0.049932554 0.049879387 0.049932469 0.049938664 0.049836434
0.049820364 0.04985331 0.049995314 0.050025322 0.049858317 0.049982917
0.050020479 0.050080255 0.049953897 0.049933173 0.050070878 0.04987549
0.049948927 0.050035283 0.050013982 0.050083034 0.049951278 0.050025765
0.050062556 0.050000612 0.050139062 0.049946051 0.049960855 0.050030295
0.050047785 0.049976937 0.04991569 0.049959462 0.049904741 0.049996208
0.050006423 0.050015215 0.049870525 0.049801592 0.049884941 0.04998523
0.050020419 0.049863145 0.049818434 0.049856015 0.049919143 0.049831375
0.049844198 0.04995288 0.049919389 0.049853742 0.049975377 0.049882557
0.049919099 0.050086085 0.049918078 0.049913201 0.050093114 0.049991623
0.050194703 0.050098691 0.050037973 0.050200883 0.050108101 0.050158869
0.050165676 0.050156299 0.050134193 0.05017177 0.050262269 0.050270151
0.050167136 0.050225914 0.050209872 0.050095908 0.050217651 0.05004159
0.050161384 0.050251462 0.050086968 0.050198153 0.050118975 0.050111476
0.05009941 0.050091337 0.0500081 0.050120059 0.050175078 0.050159104
0.050141234 0.050114002 0.050078079 0.049977001 0.050005052 0.050028004
0.049930006 0.049975 0.050020009 0.05004701 0.050079003 0.049964029
0.049973041 0.050017003 0.050048005 0.050099012 0.050018024 0.050024014
0.050129011 0.050013017 0.049904097 0.049931042 0.049972016 0.049972016
0.049904004 0.049855087 0.049793229 0.049725272 0.049800202 0.049857721
0.049776424 0.04988911 0.049900524 0.049905516 0.049878027 0.049933109
0.049870685 0.04982233 0.049945399 0.049911287 0.049884018 0.049922455
0.049935158 0.049794499 0.049780875 0.049853969 0.049981907 0.049977574
0.04983902 0.049975846 0.049996343 0.05005943 0.049975015 0.049982738
0.050047867 0.049878474 0.049964651 0.050039779 0.05003161 0.050111357
0.049964171 0.050001215 0.050067768 0.049980253 0.050103895 0.049963176
0.049961593 0.05004584 0.050059155 0.049985733 0.049903911 0.049952593
0.049968995 0.050011393 0.049947836 0.049966462 0.049873754 0.049792126
0.049853731 0.049994972 0.050023932 0.04978019 0.049783159 0.049828377
0.049904138 0.049806125 0.049800005 0.049889479 0.04991826 0.049849056
0.049920879 0.04989586 0.049878348 0.050040524 0.049917065 0.049902126
0.050070774 0.049997725 0.050193578 0.050145347 0.050060231 0.050219007
0.050193865 0.05017475 0.050193239 0.050232362 0.050155919 0.050243244
0.050313883 0.050268929 0.050188743 0.050266858 0.050257664 0.050133877
0.050238382 0.050076198 0.05021349 0.050263438 0.050109398 0.050253939
0.05017481 0.050161485 0.050109472 0.050146446 0.050078128 0.050128039
0.050158072 0.050121088 0.050189197 0.050135002 0.050077129 0.049986012
0.050013058 0.050058 0.049946003 0.049977038 0.050033003 0.050066069
0.050087005 0.050003108 0.049960077 0.049964089 0.050038002 0.050077025
0.050011039 0.050073009 0.050129998 0.050044004 0.049913038 0.049903005
0.049934004 0.049934004 0.049869005 0.049783245 0.049766313 0.049734365
0.049754247 0.049813673 0.049750663 0.049884021 0.049864702 0.049839612
0.049830645 0.049881764 0.049859621 0.049856178 0.049949992 0.0498592
0.049863178 0.049921118 0.049934302 0.049770065 0.049774654 0.049850881
0.049941689 0.049936149 0.049834751 0.049961105 0.049974315 0.050034575
0.050010163 0.050020717 0.050016463 0.049896695 0.050001815 0.050039433
0.050050981 0.050121114 0.049967792 0.049974099 0.050064392 0.049991302
0.050063536 0.049977187 0.049987238 0.050069258 0.050056741 0.050003394
0.049925197 0.049953543 0.050013982 0.050012756 0.049907085 0.049934175
0.049901728 0.049800716 0.049814433 0.049964495 0.050009638 0.049703345
0.049737468 0.049792543 0.049872801 0.049783036 0.049763765 0.049835198
0.049886905 0.049829055 0.049880262 0.04991243 0.049840983 0.049960893
0.049900785 0.049925018 0.050070167 0.050046887 0.050163519 0.050173204
0.050094817 0.05022433 0.050269656 0.050198548 0.050239366 0.050292376
0.050200645 0.050304428 0.050351825 0.050283462 0.050247934 0.050306484
0.050298672 0.050211661 0.050285023 0.050143637 0.050245907 0.05026821
0.050154742 0.050288491 0.050204482 0.050178327 0.050108444 0.050194357
0.050163154 0.050144009 0.050142072 0.050100025 0.05022911 0.050138
0.050059095 0.050012007 0.05004001 0.050083004 0.049986001 0.049987145
0.050038006 0.050076168 0.050100017 0.050041206 0.049960092 0.049910259
0.050003 0.050061077 0.049988005 0.050094023 0.050118007 0.050069004
0.049908005 0.049888 0.049933001 0.049933001 0.049815007 0.049701404
0.049755353 0.049745481 0.049731314 0.049753606 0.049720883 0.04987704
0.049823157 0.049759664 0.049760371 0.049825191 0.0498376 0.049886927
0.049947161 0.049794346 0.049811669 0.049914144 0.049942102 0.049770001
0.049795046 0.049853217 0.049886853 0.049901936 0.049840871 0.049940601
0.049964473 0.050006773 0.050035562 0.050031349 0.049984749 0.049926322
0.050055817 0.050028667 0.050060216 0.050125655 0.049972028 0.049958378
0.05005632 0.050044697 0.050040253 0.0499909 0.05002873 0.050085712
0.050049432 0.050034732 0.049971532 0.049972504 0.050036915 0.050004069
0.049909174 0.049909655 0.049918778 0.049816672 0.049783412 0.049895145
0.049962375 0.049656764 0.049697295 0.049747668 0.049811006 0.049756158
0.049733266 0.049784198 0.049819686 0.049794506 0.049853731 0.04991376
0.049815528 0.049879629 0.049876813 0.04996876 0.050078403 0.050116491
0.050137419 0.05018115 0.050141133 0.050226841 0.050324634 0.050243825
0.050300319 0.05033106 0.050269932 0.050353371 0.050378274 0.050331384
0.050337568 0.050361905 0.050330952 0.050291225 0.050348647 0.050223149
0.050267596 0.050293848 0.050233275 0.050307125 0.050215177 0.050168082
0.050103236 0.050229084 0.05024109 0.050168023 0.050133027 0.050102025
0.050242018 0.050143037 0.050038006 0.050054014 0.050064027 0.050086051
0.050042015 0.050009318 0.050042093 0.050081331 0.050102111 0.050056238
0.049976125 0.04987739 0.049967051 0.050049193 0.049966026 0.050069105
0.050093006 0.050088022 0.049885999 0.049888998 0.049943998 0.049943998
0.049748037 0.049624432 0.049745385 0.049747586 0.049728453 0.049690634
0.049676068 0.049837284 0.049786028 0.049689949 0.049680259 0.049765654
0.04980367 0.04989069 0.049924951 0.049739897 0.049742337 0.049891155
0.049949422 0.049779393 0.049830355 0.04986728 0.04983278 0.04987105
0.049856927 0.049926549 0.049964178 0.04997256 0.050037596 0.050015893
0.049962681 0.049953554 0.050110862 0.050017972 0.050056111 0.050137151
0.049992722 0.049959164 0.050046362 0.050127447 0.050050523 0.050016589
0.050069366 0.050094467 0.050056078 0.050074879 0.05002407 0.050007626
0.050051067 0.049992226 0.049945299 0.049881436 0.049902063 0.049831048
0.049772799 0.049813148 0.04988379 0.049646337 0.049671888 0.049691968
0.049719963 0.049721304 0.049705502 0.049720384 0.049727798 0.04974572
0.049824435 0.049885761 0.049810842 0.049832832 0.049859241 0.050018419
0.050082721 0.050175551 0.050140362 0.050183635 0.050196774 0.050239787
0.05036341 0.050313268 0.050372206 0.050370224 0.050353497 0.050403178
0.050415654 0.050400615 0.050440688 0.050439246 0.050361976 0.050349597
0.050416168 0.050303698 0.050293319 0.05034636 0.050334036 0.050319999
0.05022401 0.050162014 0.050105009 0.050254054 0.050299 0.050193276
0.050140031 0.050112385 0.050232049 0.050156258 0.050032105 0.050093271
0.050074257 0.050070293 0.050094172 0.050043643 0.050044417 0.050080575
0.050077371 0.050045267 0.050006278 0.0498675 0.04994728 0.050036367
0.049952187 0.050018281 0.050060015 0.050093081 0.049855009 0.04989801
0.049930014 0.049930014 0.049672138 0.049565356 0.049722448 0.049725659
0.049723789 0.049638875 0.0496144 0.049752831 0.04974629 0.049637765
0.049603552 0.049709555 0.049763083 0.04986278 0.049873378 0.049705006
0.049680445 0.049848992 0.049937256 0.049779397 0.049863722 0.049890492
0.049794983 0.04983779 0.049874458 0.049928576 0.049967226 0.049936678
0.050020743 0.049985595 0.049956296 0.049970645 0.050146792 0.050023768
0.050052397 0.050154693 0.050033897 0.049981885 0.050039485 0.050209761
0.050095785 0.050067753 0.050101563 0.050108775 0.050092887 0.050110202
0.050071009 0.050056063 0.050072573 0.049984414 0.049984638 0.049847752
0.049860489 0.049840599 0.049776323 0.049750499 0.049793646 0.049654756
0.049651619 0.049626593 0.049616985 0.049679048 0.049676806 0.049631469
0.049627222 0.04968721 0.04977335 0.049827728 0.049820933 0.049831223
0.049854286 0.050063189 0.050075311 0.050212745 0.050179712 0.05020012
0.0502652 0.050278358 0.050394446 0.050395831 0.050447945 0.0504268
0.05044049 0.050469693 0.050481226 0.050476424 0.050538484 0.050527591
0.05040108 0.050394926 0.050482564 0.050386265 0.050342049 0.050409012
0.050427027 0.050336149 0.050250091 0.05018039 0.050131269 0.050265767
0.050330319 0.05021894 0.050164554 0.050120246 0.050209649 0.050171867
0.050044812 0.050113048 0.050072875 0.050055008 0.050126787 0.050078273
0.050034177 0.050065942 0.050031912 0.050024424 0.050040707 0.049871638
0.049942777 0.050013565 0.049944505 0.049969465 0.050020218 0.050073154
0.049825072 0.049900047 0.049876038 0.049876038 0.049589332 0.049525298
0.049680643 0.04967577 0.049692407 0.049597479 0.049545091 0.049639724
0.04969275 0.049590301 0.049536508 0.049661189 0.049723092 0.049810562
0.049799386 0.049683698 0.049643449 0.049795974 0.049891863 0.049762055
0.049881164 0.049910061 0.049780976 0.049802691 0.049877815 0.049942434
0.049968448 0.049910806 0.050001454 0.04996068 0.049966756 0.049981039
0.050155412 0.050048277 0.050060328 0.050172359 0.050084848 0.050033107
0.050050981 0.050268725 0.050166126 0.050144836 0.050129831 0.050141737
0.050161235 0.050135054 0.050111406 0.050117876 0.050107468 0.049987856
0.050004147 0.049818575 0.049823735 0.049847018 0.049780656 0.04972199
0.049714141 0.049653802 0.04961564 0.049552362 0.049527213 0.049625177
0.049638543 0.049521487 0.0495307 0.049620189 0.049696106 0.049759839
0.04983367 0.049859378 0.049858119 0.050091021 0.050064113 0.050235543
0.050244708 0.050239846 0.050355993 0.050349887 0.050432824 0.050480735
0.050522268 0.050508842 0.050533231 0.050560709 0.050578665 0.050552156
0.050622266 0.050612953 0.050452393 0.050443348 0.050556071 0.050472006
0.050425094 0.050464272 0.050490361 0.050364658 0.050299734 0.05023035
0.050188601 0.050269466 0.050332688 0.05024717 0.050194219 0.050126616
0.050183386 0.050182052 0.050067466 0.050104387 0.050071131 0.050054338
0.050139297 0.050101377 0.050001509 0.050035585 0.049981866 0.050004933
0.050058551 0.049873888 0.049940482 0.049977764 0.049935922 0.04993559
0.049972646 0.050024159 0.04980319 0.049877077 0.049799036 0.049799036
0.049494538 0.049489338 0.049621012 0.04960205 0.049620312 0.049559541
0.049479194 0.049523946 0.049615197 0.049525443 0.049476046 0.049619678
0.049684867 0.049746376 0.049718861 0.049659953 0.049629569 0.049740717
0.049816433 0.049730401 0.049872592 0.049908951 0.049784947 0.049770273
0.049857914 0.049950592 0.049967453 0.049910355 0.049997095 0.049951367
0.049987569 0.049994264 0.050142903 0.050083268 0.050089344 0.050187066
0.050131883 0.050112896 0.050097264 0.050299291 0.050242282 0.050234005
0.050165348 0.050200235 0.050253477 0.05016258 0.050155148 0.050189998
0.050152622 0.050011691 0.050006706 0.049809586 0.049820669 0.049850162
0.049776688 0.049720328 0.049658656 0.049623635 0.049555954 0.049474955
0.049466632 0.049555909 0.049574766 0.049407598 0.049437992 0.049555309
0.049609385 0.049704973 0.049836941 0.049889158 0.04986285 0.050098732
0.050061002 0.050261449 0.050317958 0.050300527 0.050469309 0.050451633
0.050493106 0.050569363 0.050599277 0.050611448 0.050637957 0.05067632
0.050698478 0.050638087 0.050689373 0.050688393 0.050522022 0.050508015
0.050644111 0.050563194 0.050536841 0.05050537 0.050521318 0.050414734
0.050366364 0.050307028 0.050269216 0.050276041 0.050309516 0.050274163
0.050221134 0.050133653 0.050161388 0.050176993 0.050089072 0.050077323
0.050074324 0.050072324 0.050138928 0.050098065 0.049950372 0.049994797
0.049943369 0.049985077 0.050038762 0.049859375 0.049925238 0.04992798
0.04991731 0.049914695 0.049909014 0.049953125 0.049789276 0.04982207
0.049727011 0.049727011 0.049386632 0.049438536 0.049541455 0.049513664
0.049515348 0.049517982 0.049422499 0.049421418 0.049518608 0.049434938
0.04941174 0.049574811 0.049639363 0.049683422 0.049645819 0.049619962
0.049622636 0.049687862 0.049725913 0.049691431 0.049835663 0.049876798
0.049789343 0.049747813 0.049815279 0.04993752 0.049962707 0.049937945
0.050014798 0.049962867 0.050012257 0.050017614 0.050128903 0.050120477
0.050138898 0.050202828 0.050169136 0.050215688 0.050186682 0.050313324
0.050311901 0.050318107 0.050220881 0.050282039 0.050356571 0.050210699
0.050210938 0.050273307 0.050200846 0.050056815 0.050011296 0.049828362
0.049851395 0.049849212 0.049765579 0.049727418 0.049619537 0.049565539
0.049478371 0.04939618 0.049426112 0.049465809 0.049476273 0.049305074
0.049346033 0.049495891 0.049534198 0.049671695 0.049824737 0.049899768
0.049869806 0.050086085 0.050077654 0.050299399 0.050386582 0.050372768
0.050594497 0.050572671 0.050589796 0.050676048 0.050688252 0.050728828
0.050760787 0.050803889 0.050824691 0.050743356 0.05075201 0.050755039
0.050614133 0.05059519 0.050740942 0.050657067 0.050659381 0.050540116
0.05054016 0.050486635 0.050443184 0.050393656 0.05035992 0.050292306
0.050279714 0.050290134 0.050241869 0.050143566 0.05014519 0.050159916
0.050101411 0.050049983 0.050080523 0.050100058 0.050128408 0.050060295
0.049897559 0.049956877 0.049912412 0.049954012 0.049975097 0.049821228
0.049885891 0.049865317 0.049888622 0.049889877 0.049824126 0.049870118
0.049776271 0.049743053 0.049681999 0.049681999 0.04926556 0.049362916
0.049441766 0.049410664 0.049397301 0.049473625 0.049374741 0.049329136
0.049408074 0.049324565 0.049336236 0.049510308 0.049575385 0.049622498
0.049587511 0.049566913 0.04960636 0.049638867 0.049639124 0.049652461
0.04977832 0.049815185 0.049775239 0.049731974 0.04976638 0.049899131
0.049949776 0.049980644 0.050045453 0.049987208 0.050037134 0.050050959
0.050130151 0.050160665 0.050205301 0.050225634 0.050207589 0.050332755
0.050312623 0.050334085 0.0503699 0.050390914 0.050299838 0.050381087
0.050462108 0.050294317 0.050286621 0.050364681 0.050247934 0.050115939
0.050037988 0.04987967 0.04990017 0.049840394 0.049759552 0.049725391
0.049580816 0.04949962 0.049399689 0.049317084 0.049383566 0.049355295
0.049345762 0.049220961 0.049254972 0.049444947 0.049480081 0.049650669
0.049799386 0.049889568 0.049884368 0.050068222 0.050120037 0.05035587
0.050448898 0.050445285 0.050713714 0.050697751 0.05072489 0.050812896
0.050802376 0.050868236 0.050899774 0.050938793 0.050947197 0.050868019
0.05082114 0.050830103 0.050727833 0.050701216 0.050835539 0.050747767
0.050773583 0.050581343 0.05057206 0.050574679 0.05052514 0.05047955
0.050440457 0.050321199 0.050256878 0.050286282 0.050255112 0.0501545
0.050133377 0.050139934 0.050101276 0.05003152 0.050088514 0.050125707
0.050099988 0.049992915 0.049857862 0.049927775 0.049879674 0.049898528
0.049875356 0.049760569 0.049816445 0.0497959 0.049849968 0.049848188
0.049720068 0.049783189 0.049751215 0.049651038 0.049663011 0.049663011
0.049133383 0.049261428 0.049322795 0.049288899 0.049280029 0.049424224
0.049326833 0.049234144 0.049288761 0.049206585 0.049250558 0.049419079
0.04948571 0.049552228 0.049539328 0.049508918 0.049569763 0.04959175
0.049570274 0.049613826 0.049715932 0.049736179 0.04973533 0.049715083
0.049726021 0.049847532 0.049923286 0.05001257 0.05007074 0.050017424
0.050062109 0.050087992 0.050152853 0.050211158 0.050282713 0.050265003
0.050260354 0.050452139 0.050455488 0.050376385 0.050424747 0.050461508
0.050404817 0.050494481 0.050562635 0.050412476 0.050389331 0.050466187
0.05030195 0.050178822 0.050093763 0.049958687 0.04994018 0.049824804
0.049764562 0.049708396 0.049535219 0.049442764 0.049333815 0.049234793
0.049312979 0.049230501 0.049195036 0.049149044 0.049165048 0.049390141
0.049443863 0.049624417 0.049766857 0.049868915 0.04991382 0.05006161
0.050188344 0.050427608 0.05051719 0.050516274 0.050817788 0.050821409
0.050891872 0.05098189 0.050952621 0.05103692 0.051051944 0.051083151
0.051066 0.051003132 0.050901704 0.050925873 0.050861236 0.050818346
0.05092195 0.050836518 0.050869595 0.050644394 0.050635397 0.050671298
0.050612416 0.05056116 0.050497998 0.050359175 0.050249897 0.050265811
0.050260052 0.050163563 0.050126076 0.050120119 0.050088692 0.050023001
0.050099995 0.050130241 0.050043218 0.049909882 0.049836256 0.049902089
0.049837835 0.049818251 0.049761608 0.04968448 0.049722183 0.049725886
0.049795542 0.049776606 0.049613051 0.049694397 0.049700182 0.049562041
0.049653012 0.049653012 0.04899323 0.049143925 0.049188618 0.049138013
0.04916748 0.049363613 0.049268931 0.049127482 0.049158853 0.049088158
0.049162067 0.049299132 0.049374178 0.049459077 0.049489267 0.049452785
0.04950821 0.049539268 0.04951809 0.049575165 0.049660366 0.049657509
0.049678911 0.049692813 0.049705409 0.049800094 0.049879458 0.050010953
0.05007422 0.050047152 0.050090782 0.050123479 0.050193686 0.050272256
0.05036626 0.050325502 0.050339743 0.05056677 0.050591536 0.050451174
0.050493069 0.050549194 0.050537068 0.050624475 0.050656959 0.050554197
0.050522245 0.05057992 0.050375927 0.050243352 0.050171424 0.05005559
0.04996236 0.049814161 0.049788363 0.049680293 0.049487222 0.049397573
0.049280625 0.049142387 0.049198225 0.049095143 0.049042996 0.049078867
0.049080424 0.049316321 0.049411125 0.049584426 0.04973159 0.049860284
0.049960379 0.050078932 0.050281174 0.050516333 0.050607763 0.050597347