# vtk DataFile Version 3.0
axinsert(project(permute(???,2,0,1),0,L2),2)
ASCII
DATASET STRUCTURED_POINTS
DIMENSIONS 128 256 1
ORIGIN 0 0 0
SPACING 1 1 1
POINT_DATA 32768
SCALARS nrrd71823 float
LOOKUP_TABLE default
0.050016005 0.050035033 0.050057065 0.050014056 0.050014351 0.050003015
0.049987186 0.049962025 0.049987022 0.049991004 0.049981009 0.05000405
0.049972028 0.050024237 0.050037012 0.050027039 0.050016169 0.049994051
0.049953245 0.049983051 0.050042074 0.050003 0.050000038 0.050016005
0.050018203 0.049927 0.049973 0.050060146 0.050036117 0.04999001
0.049949039 0.049964041 0.050049037 0.050009001 0.049966089 0.05002521
0.050008018 0.049945008 0.04996714 0.05006424 0.050045099 0.049989
0.049951002 0.049963068 0.050007079 0.050019011 0.050022013 0.049987126
0.049968168 0.050041001 0.050011002 0.049992085 0.049956001 0.05002062
0.050034013 0.050024133 0.050013017 0.04992703 0.049964085 0.049994342
0.050031312 0.050025076 0.04999711 0.049986038 0.049967427 0.050041452
0.050011013 0.050015576 0.049954034 0.049992923 0.050022248 0.049996659
0.050003175 0.050037485 0.050001007 0.050029386 0.050000239 0.049976271
0.049976159 0.049963962 0.049996 0.049992237 0.049985185 0.05001324
0.049987137 0.049988136 0.050069187 0.050033003 0.049999025 0.049974032
0.049992174 0.049977001 0.049978118 0.049999155 0.049988031 0.050035428
0.050008003 0.050009545 0.050042003 0.050034031 0.050020017 0.050006285
0.050012086 0.049959071 0.049975 0.050023023 0.0500062 0.049983043
0.049988009 0.049974002 0.049973175 0.04999315 0.050035004 0.04999708
0.050001014 0.050058041 0.050000459 0.049934007 0.04993302 0.050010711
0.050032001 0.049997237 0.050025001 0.050042 0.04995843 0.049988527
0.050018456 0.050018456 0.050029013 0.050064061 0.050071001 0.050071042
0.04997405 0.049930174 0.050009042 0.049907036 0.049975071 0.049997002
0.049948178 0.049980018 0.04996717 0.050043005 0.05014823 0.050044004
0.05000516 0.050055042 0.049926002 0.049968071 0.050003007 0.04997737
0.049990002 0.050014641 0.050077036 0.049898136 0.049896002 0.05007736
0.050052129 0.050009493 0.049964104 0.049871124 0.049977422 0.05000576
0.049928788 0.050021619 0.050103016 0.049988199 0.049957167 0.050102033
0.050081458 0.049980137 0.049948312 0.049929999 0.050046258 0.050019003
0.050070297 0.04995 0.049933422 0.050035998 0.049977694 0.050006069
0.049878471 0.049991257 0.050076734 0.050010484 0.049983822 0.049966425
0.049947049 0.049960032 0.050065119 0.049988974 0.05001571 0.049990579
0.04987359 0.050082244 0.049999673 0.049957741 0.04998035 0.049911242
0.049975246 0.050068848 0.050088856 0.050042626 0.050060127 0.050072115
0.050046708 0.049944684 0.04995241 0.049987677 0.049988016 0.049988616
0.049988084 0.050038222 0.050069045 0.049928013 0.05007714 0.050096087
0.049986061 0.04994319 0.050000131 0.049999204 0.049935024 0.050043106
0.049941003 0.049981307 0.050016064 0.050016187 0.050038062 0.050087359
0.050109096 0.049999095 0.049978118 0.049969316 0.049978022 0.050071228
0.050052073 0.049927145 0.049956005 0.050056171 0.049967468 0.049936112
0.050078187 0.049977113 0.050007112 0.050152063 0.050003052 0.049829029
0.049832009 0.049969088 0.050015002 0.050016284 0.050117999 0.050135035
0.04995314 0.049972005 0.04997218 0.04997218 0.049994089 0.050040022
0.050002176 0.050068006 0.049930274 0.049929056 0.050009105 0.049912177
0.0500101 0.049980056 0.049969286 0.049976002 0.050006222 0.050007008
0.050122425 0.050068043 0.049949288 0.050037239 0.049928725 0.049976625
0.049957685 0.049969684 0.049974669 0.049986877 0.050086644 0.050037954
0.049899042 0.049941797 0.050020564 0.0500159 0.050002735 0.049925976
0.049868189 0.049909357 0.049987014 0.049979631 0.050157331 0.050103474
0.050008934 0.050016232 0.050003808 0.050012749 0.050011426 0.04999236
0.050006904 0.05002379 0.050070617 0.049925756 0.049979087 0.050000448
0.049917988 0.050024722 0.049913891 0.049937416 0.050010353 0.049981989
0.049918488 0.050095398 0.05001393 0.049936969 0.050016008 0.049967632
0.050047729 0.049990453 0.049878828 0.049999155 0.049956053 0.049898453
0.050039712 0.049890149 0.049881741 0.050134629 0.050111406 0.050015893
0.050094396 0.050090779 0.050115012 0.05002008 0.049937882 0.050121382
0.050029054 0.049944583 0.050033364 0.050031289 0.05011249 0.049941216
0.049989305 0.050083458 0.049981501 0.049949341 0.049969357 0.050060783
0.049980097 0.050049406 0.049938075 0.049917351 0.050054058 0.05002908
0.049997039 0.050039113 0.050133284 0.050000083 0.049958199 0.050042082
0.05000807 0.05009203 0.050035998 0.049893279 0.049991004 0.050173111
0.049985088 0.049926072 0.050034061 0.049981225 0.049990043 0.05005537
0.050046086 0.049904112 0.04985306 0.049946025 0.049966067 0.050022092
0.05017709 0.050116006 0.04998501 0.049960043 0.049949005 0.049949005
0.049983039 0.050012998 0.04997712 0.05002303 0.049925372 0.049984023
0.049952243 0.049941152 0.050028078 0.049914263 0.050004371 0.05000414
0.050012279 0.049992144 0.050040293 0.050074685 0.049933553 0.049971811
0.049856819 0.04995954 0.049991168 0.049965203 0.049962439 0.050014466
0.050070886 0.05009377 0.04992073 0.0498995 0.050017722 0.049991377
0.049948104 0.050013795 0.049890678 0.049838293 0.050052892 0.049974702
0.050115906 0.050074287 0.050037604 0.049973007 0.049941108 0.050054513
0.050038893 0.050018005 0.049948651 0.050072443 0.050059211 0.049881719
0.05000072 0.050038815 0.049927291 0.050020427 0.04995925 0.049907144
0.04997443 0.049984559 0.049906529 0.050055373 0.050024208 0.049961705
0.049967065 0.050017539 0.050033681 0.04998906 0.049915601 0.049909584
0.049972896 0.049891029 0.050023004 0.049910251 0.049894426 0.050110716
0.050077021 0.050027829 0.05008373 0.050095297 0.050135899 0.050099615
0.049931902 0.050230671 0.050096836 0.049891409 0.050055154 0.050015155
0.050086442 0.049991362 0.050003693 0.050051801 0.050010063 0.049967449
0.049910527 0.050081622 0.050040372 0.050049327 0.049968198 0.049971145
0.050113019 0.05002607 0.050006043 0.049980029 0.050110217 0.050017126
0.049987108 0.050044015 0.050035082 0.050120007 0.049961053 0.049905106
0.050023001 0.050165042 0.04999803 0.049944017 0.049989004 0.049983148
0.049968012 0.049971223 0.050082169 0.049994174 0.049899999 0.049982004
0.049963053 0.050016012 0.050185062 0.050071023 0.049942002 0.049955174
0.050012998 0.050012998 0.049989007 0.049993023 0.049941033 0.049981084
0.049935251 0.049974043 0.049924467 0.049978096 0.049973268 0.049876478
0.050008412 0.050009631 0.049995467 0.05001587 0.049977373 0.050014459
0.049931038 0.049974699 0.049824867 0.049918912 0.05001428 0.049923833
0.04994791 0.050065074 0.05004723 0.050066661 0.049935717 0.049946316
0.050031893 0.049965099 0.049930364 0.0500069 0.049933966 0.049871329
0.050078027 0.049986251 0.050046992 0.050011236 0.050039761 0.049980208
0.049922522 0.050049748 0.050065968 0.050029527 0.049942806 0.050083369
0.05004105 0.049854677 0.04996917 0.050058607 0.049974147 0.050027855
0.049967725 0.049904924 0.049958732 0.049969304 0.049940102 0.0500107
0.049973663 0.049960699 0.049927086 0.05001827 0.049999554 0.050002161
0.049931094 0.049864173 0.050015818 0.049898289 0.050007846 0.04995653
0.049934812 0.050077941 0.050095521 0.050043266 0.050048131 0.050070792
0.050090704 0.050121959 0.049936462 0.05026995 0.050170366 0.049895879
0.050064754 0.050007548 0.05007774 0.050060399 0.050074536 0.050022233
0.050057743 0.050038707 0.04993964 0.050083168 0.050059542 0.050084203
0.050007239 0.050005067 0.05009811 0.05000921 0.050024163 0.049968116
0.050071154 0.050043333 0.050030041 0.050056055 0.050078999 0.050105002
0.049915038 0.049943019 0.050041001 0.050115004 0.05001305 0.049966007
0.049954016 0.049965061 0.049969036 0.049957033 0.050071023 0.050038084
0.049959 0.050009999 0.049951028 0.050030004 0.050166048 0.050027031
0.049905002 0.049969126 0.050072003 0.050072003 0.049963001 0.049986098
0.049931999 0.049920123 0.049943227 0.049929112 0.049916528 0.049992152
0.049910545 0.049875431 0.049970482 0.049995858 0.049964592 0.050022297
0.049954832 0.049944568 0.049912486 0.049994044 0.049845301 0.049886663
0.050007511 0.049878195 0.049939025 0.050096255 0.05001168 0.050031167
0.049957182 0.050014641 0.050036181 0.049930856 0.049962733 0.049944937
0.049959853 0.049960651 0.050058488 0.049988016 0.049988467 0.049982928
0.050028633 0.050017979 0.049982235 0.050008561 0.050059941 0.050043855
0.049967799 0.050041419 0.050026659 0.049864717 0.049903214 0.050036892
0.050014809 0.050062254 0.049963173 0.049899526 0.049939431 0.049941007
0.049975853 0.05000044 0.04991515 0.04992757 0.049912963 0.04997772
0.049969215 0.050024558 0.049923688 0.049847029 0.050046008 0.049896579
0.050003242 0.050007802 0.049943037 0.050052911 0.050143842 0.050064951
0.05003554 0.050040767 0.050042093 0.050115764 0.049940962 0.050234482
0.050204169 0.049947321 0.050085522 0.050023708 0.05010096 0.050126921
0.050144464 0.050024867 0.050099004 0.050130256 0.050053027 0.050092187
0.050035972 0.050119281 0.050036542 0.050009146 0.050051391 0.050002374
0.050040361 0.049988251 0.050033208 0.05008053 0.050090056 0.050107118
0.050104015 0.050068073 0.049928002 0.049969003 0.050058007 0.050076
0.049996015 0.049979035 0.049940009 0.049960032 0.049993001 0.049977999
0.050048999 0.050049018 0.049988005 0.050028998 0.049948059 0.050034005
0.050146028 0.049981005 0.049888 0.049986016 0.050106999 0.050106999
0.049931005 0.049981076 0.049927998 0.049835153 0.049938239 0.049897235
0.049898416 0.0499794 0.04988965 0.04988943 0.049923509 0.04998678
0.049928576 0.049971204 0.049948394 0.049910326 0.049885586 0.049989723
0.049885768 0.049876239 0.049964815 0.049853235 0.049947027 0.050100002
0.049963146 0.050006125 0.049989492 0.050065555 0.050010782 0.0498963
0.050019152 0.049895242 0.049961917 0.050024234 0.050030217 0.049994662
0.049949937 0.049997192 0.050028626 0.050041042 0.050070494 0.049964644
0.050028086 0.050049234 0.049995162 0.049991772 0.050002918 0.049902309
0.049846198 0.049997941 0.050040785 0.050089628 0.049947646 0.049874235
0.04991731 0.049927741 0.049995307 0.049985401 0.049870003 0.049895339
0.049915712 0.049926311 0.049941245 0.050037254 0.049906395 0.049838688
0.050051458 0.049886957 0.049992841 0.050050523 0.049927741 0.050022002
0.050168999 0.050071962 0.05007042 0.050028518 0.05002331 0.050126836
0.049965519 0.050180811 0.050194733 0.050011285 0.050113704 0.050055593
0.05014468 0.050197303 0.050184127 0.050074782 0.050131902 0.050169054
0.050159812 0.050089858 0.050036024 0.050158609 0.050059289 0.050035428
0.050027687 0.050013419 0.050058462 0.050013263 0.049999248 0.050113447
0.050152116 0.050172143 0.050101999 0.050051145 0.049984001 0.04998
0.050058004 0.050048016 0.049968008 0.049983088 0.049953002 0.049977027
0.050032008 0.049978003 0.050028 0.050051007 0.049998004 0.050064001
0.049967062 0.050009031 0.05013001 0.04996001 0.049883008 0.049988013
0.050106 0.050106 0.049916003 0.049962025 0.049899016 0.049760181
0.049912222 0.049882431 0.049861308 0.049947821 0.049897637 0.04990869
0.049897511 0.049983859 0.049896613 0.049887192 0.049943581 0.049914271
0.04986947 0.049962401 0.049918905 0.049869116 0.049899157 0.049846243
0.04996917 0.050076913 0.04990777 0.049988963 0.050016001 0.050086688
0.049971808 0.04988743 0.050061595 0.049875848 0.04995092 0.050037947
0.050011907 0.050023135 0.049935222 0.050022155 0.050040953 0.050033871
0.050130215 0.049940202 0.049991462 0.050038826 0.050018705 0.049970362
0.049963973 0.049941152 0.049838468 0.049977757 0.05004558 0.050076023
0.049911235 0.049836945 0.049901079 0.049940415 0.050003551 0.049945228
0.049840957 0.049873997 0.049917541 0.049876098 0.049903039 0.050017431
0.049901333 0.049840473 0.050032165 0.04987859 0.049967416 0.050082672
0.049917776 0.049975935 0.050150458 0.050046191 0.050136767 0.050048001
0.0500286 0.050161686 0.050018277 0.050157651 0.050176546 0.050073951
0.05013429 0.050101407 0.050199743 0.050256751 0.050190669 0.05015371
0.050168101 0.050144792 0.050213613 0.050070092 0.050083999 0.050210133
0.050079048 0.050104879 0.050052915 0.050049439 0.050082445 0.050044253
0.049984187 0.050128229 0.050188132 0.050201133 0.050108097 0.050071079
0.050044008 0.049984001 0.050038002 0.050028022 0.04994401 0.049983077
0.049984008 0.050008006 0.050065011 0.049959004 0.050004005 0.050050013
0.050018001 0.050097998 0.049995013 0.049991038 0.050124012 0.049973037
0.049888059 0.049972061 0.05006101 0.05006101 0.049911 0.049921017
0.049848098 0.049721226 0.049864214 0.049872655 0.04981431 0.049909167
0.049905594 0.049921159 0.049889628 0.049969297 0.049875919 0.049822558
0.049938481 0.049924601 0.04986953 0.049933553 0.049930912 0.049843479
0.049831577 0.04984653 0.049986552 0.050035428 0.049863551 0.049979202
0.050019745 0.050080415 0.049950074 0.049913596 0.050070167 0.049871705
0.049944252 0.050032619 0.050009351 0.050066452 0.049944554 0.050026178
0.050057679 0.050008945 0.050142195 0.049941152 0.049964063 0.050029539
0.0500401 0.049972102 0.049923051 0.049956784 0.049880967 0.04998558
0.050016683 0.050029501 0.049873829 0.049804151 0.049883444 0.049968764
0.050009828 0.049879663 0.049816858 0.049853552 0.049912572 0.049833886
0.049852818 0.049965523 0.049911059 0.049847383 0.049988963 0.049879238
0.049931854 0.050091777 0.049921401 0.049929876 0.050111767 0.050010499
0.050191812 0.050092988 0.050043952 0.050201163 0.050094783 0.050166134
0.05017636 0.05014674 0.05014772 0.050165173 0.050260723 0.050286386
0.05018634 0.050225273 0.050212871 0.050116185 0.050230935 0.050057806
0.050154854 0.050256535 0.050097212 0.050188221 0.050113056 0.050106511
0.050107446 0.050089337 0.050007131 0.050132096 0.050191104 0.050183125
0.050138235 0.05011202 0.050081063 0.049984001 0.050016046 0.050030012
0.049934011 0.049981017 0.050016012 0.050041001 0.050080005 0.049959011
0.049981024 0.050028998 0.050044004 0.050103009 0.05001501 0.05001102
0.050129015 0.050003026 0.049901102 0.049943056 0.04999502 0.04999502
0.049899004 0.049864065 0.049795218 0.049711283 0.049805228 0.049853787
0.049773425 0.049880248 0.049895592 0.049904574 0.049874987 0.049935047
0.049863588 0.049807295 0.049935531 0.049912289 0.049875028 0.049917366
0.049928263 0.049801439 0.049783092 0.049847145 0.049981125 0.049987588
0.049837332 0.049972024 0.049999639 0.050061606 0.049961306 0.049961075
0.050053068 0.04987273 0.049953923 0.050034184 0.050022904 0.050100751
0.049959309 0.05000753 0.050065842 0.049984496 0.050116152 0.049956333
0.049957823 0.05003817 0.050055463 0.049980935 0.049902245 0.049952023
0.049945347 0.050002672 0.049963079 0.04997687 0.049864184 0.049786761
0.049856327 0.049985629 0.050014276 0.049797781 0.049783673 0.049825981
0.049899656 0.049803685 0.049803704 0.049900264 0.049914196 0.049846638
0.049933638 0.049888697 0.0498912 0.050059464 0.049923528 0.04990793
0.050082717 0.050001878 0.050206106 0.050143953 0.050064415 0.050227597
0.050181758 0.050185066 0.050199039 0.050226796 0.050166406 0.050238773
0.050319184 0.050291181 0.050200038 0.050275333 0.050262801 0.050137229
0.050248753 0.050080609 0.050214957 0.050278623 0.050117742 0.050254136
0.050174966 0.050163552 0.050123505 0.050143465 0.050068136 0.050139055
0.05017709 0.050146114 0.050184242 0.050141003 0.05008813 0.049991008
0.050016072 0.050055001 0.04994401 0.049981013 0.050034009 0.050065037
0.050087001 0.049991071 0.049965065 0.049983043 0.050045006 0.050086018
0.050016042 0.050059006 0.050132003 0.050035007 0.04991306 0.049913011
0.049944006 0.049944006 0.049869005 0.049794201 0.049759317 0.049716372
0.049752269 0.049814772 0.04974366 0.049870159 0.04986272 0.049849752
0.049835593 0.049885795 0.049851537 0.049832191 0.049936991 0.049869198
0.049862087 0.049911913 0.04992424 0.049768936 0.049764812 0.04984403
0.049947895 0.049942188 0.049827088 0.049959276 0.049974628 0.050036862
0.049993496 0.05000497 0.050022531 0.049885958 0.049984016 0.050036799
0.05004308 0.050116386 0.049966779 0.049981333 0.050065439 0.049983479
0.050075907 0.049973466 0.049976561 0.050060645 0.050058015 0.049995705
0.049913526 0.049950011 0.049998414 0.050010003 0.049913418 0.049937725
0.04988521 0.049789254 0.049817998 0.04996815 0.050005954 0.049715873
0.049739145 0.049791235 0.049872506 0.049778603 0.049762551 0.049840979
0.04989193 0.049830563 0.049886186 0.049904257 0.049851809 0.049987949
0.049912598 0.049920008 0.050075307 0.050039068 0.050185904 0.050180227
0.050097901 0.050239336 0.050264582 0.050208066 0.050242357 0.050295934
0.050206229 0.050307062 0.050364118 0.050300878 0.050249405 0.050316032
0.050309125 0.050206047 0.050289378 0.050141018 0.050256204 0.050286435
0.050156046 0.050296716 0.050214659 0.05019344 0.050126515 0.050195448
0.050150175 0.050153021 0.050161086 0.050118059 0.050229158 0.050149001
0.050075129 0.05001102 0.050038029 0.050083999 0.049978003 0.049989097
0.050042 0.05007812 0.050100006 0.050033167 0.049961086 0.049929194
0.050016999 0.050068054 0.049998015 0.050092015 0.050125003 0.050062999
0.049912006 0.049892001 0.049931999 0.049931999 0.049818009 0.049712379
0.049742375 0.049726486 0.049720325 0.049757697 0.049714904 0.049865134
0.04982109 0.049770806 0.049769323 0.049828332 0.049831565 0.049865019
0.049937017 0.049804322 0.04981856 0.049906973 0.049928952 0.049758881
0.049776062 0.049842287 0.049895979 0.049904019 0.04983012 0.049938783
0.049959779 0.05000909 0.050022863 0.050025459 0.049990728 0.049911533
0.050033819 0.050029878 0.050056148 0.050122749 0.04996996 0.049961556
0.050059386 0.05002385 0.050045606 0.049986321 0.05001514 0.050081089
0.0500517 0.050023168 0.049953848 0.049962945 0.050028317 0.050004363
0.049900547 0.049911212 0.049908195 0.049802046 0.049781837 0.049907692
0.049968734 0.049656205 0.049694102 0.049747352 0.04981887 0.049751751
0.049728196 0.049787965 0.0498337 0.049798071 0.049854759 0.049910478
0.049821235 0.049903683 0.049889062 0.049957968 0.050083719 0.050104607
0.050157532 0.050195567 0.050143052 0.050244156 0.050328597 0.050249662
0.050301384 0.050343812 0.050270732 0.050363109 0.050395835 0.050339028
0.050332222 0.050367467 0.050346576 0.050290655 0.050350975 0.050220467
0.050282791 0.050305095 0.050226469 0.050322264 0.05023231 0.050191183
0.050123349 0.050236195 0.050234139 0.050174002 0.050151054 0.050112002
0.050254051 0.050152011 0.050055042 0.050048999 0.050066005 0.050095022
0.050030004 0.050008245 0.050047044 0.050085261 0.050107062 0.050057229
0.049972109 0.049888346 0.049980022 0.05005515 0.049975008 0.050083067
0.050104011 0.050085012 0.049896002 0.049888998 0.049943 0.049943
0.049753025 0.049630459 0.049731404 0.049730603 0.049710449 0.049692683
0.049674101 0.0498363 0.049780861 0.049694002 0.049689177 0.049767774
0.049799643 0.049876802 0.049920686 0.049742788 0.049751274 0.049888119
0.049936216 0.049765229 0.049806152 0.049851179 0.049839728 0.049871106
0.049842913 0.049921647 0.049956363 0.049976729 0.050032757 0.050017815
0.049964618 0.049940675 0.050090667 0.050018903 0.05005601 0.050132062
0.049985666 0.049956266 0.050050519 0.050099589 0.050045718 0.050008021
0.050057724 0.050092753 0.050053399 0.050062355 0.050007328 0.049992993
0.050044373 0.049993563 0.049926642 0.049884815 0.049902391 0.049817298
0.049763091 0.049825538 0.049897283 0.049632773 0.049661722 0.049692586
0.049732886 0.049716976 0.049697533 0.04972719 0.049745809 0.049751606
0.049825523 0.049891517 0.049808569 0.049843963 0.049866825 0.050007824
0.050091144 0.05016971 0.050152306 0.050201233 0.050197776 0.050255325
0.05037554 0.050315466 0.050374307 0.050384186 0.050353535 0.050414946
0.05043057 0.050405446 0.05043545 0.050440785 0.050379571 0.050359037
0.050420508 0.050302971 0.050307482 0.050350595 0.050323121 0.050338022
0.050242063 0.050182004 0.050123066 0.050264999 0.050300017 0.050201137
0.050151002 0.0501232 0.050251003 0.050163146 0.050043028 0.050092138
0.050081141 0.050085176 0.050086088 0.050038505 0.050051268 0.050087482
0.050092258 0.050055251 0.049999207 0.04987146 0.049955178 0.050043307
0.049959116 0.050039213 0.050074 0.050096057 0.049867 0.049897004
0.049940009 0.049940009 0.049678106 0.049562406 0.049711451 0.049715687
0.049706724 0.049634844 0.049615379 0.049763765 0.049741041 0.049634654
0.049609363 0.04970853 0.049758974 0.049857792 0.049877007 0.049699809
0.049683295 0.049849074 0.049929995 0.049769141 0.049840298 0.049872126
0.049794603 0.049838722 0.049859058 0.049917407 0.049958017 0.049940486
0.050020628 0.049991302 0.049952175 0.0499616 0.050134514 0.05001938
0.05005135 0.050147437 0.05002081 0.049972787 0.05004172 0.050185803
0.05008173 0.050052021 0.050094742 0.050105926 0.050080169 0.050100584
0.050057147 0.050038327 0.050062764 0.049983721 0.049967896 0.049851935
0.049865775 0.049827818 0.049761593 0.04975279 0.049805313 0.04963427
0.049638353 0.049628127 0.049628865 0.049672931 0.049666848 0.049643435
0.049644239 0.049692508 0.049780551 0.049840804 0.04981311 0.049827553
0.049858149 0.050055716 0.050089791 0.050216086 0.050182816 0.050213777
0.050264455 0.050288048 0.050410908 0.050397329 0.050453112 0.050437953
0.05044366 0.050477564 0.050489295 0.050483301 0.050539259 0.050529066
0.050418563 0.050410315 0.05048988 0.050386481 0.050350159 0.050414108
0.050423 0.05035305 0.050262015 0.050192181 0.050141077 0.050282408
0.050341118 0.050228637 0.050170276 0.05013388 0.050231341 0.050179604
0.050050482 0.050119724 0.050083615 0.050068706 0.05012551 0.050075017
0.050045863 0.0500778 0.050052695 0.050036348 0.050033528 0.049872581
0.04994658 0.050024502 0.049949385 0.049987409 0.050036117 0.050084129
0.049837042 0.049903035 0.04989903 0.04989903 0.04959527 0.049515333
0.049674604 0.049672779 0.049684264 0.049589343 0.049545962 0.049656566
0.049690519 0.049585991 0.04953716 0.049655955 0.049715824 0.049810372
0.04980794 0.049673412 0.049637064 0.049797039 0.049894463 0.049755715
0.04986259 0.049893409 0.049772177 0.049802341 0.049867995 0.049927797
0.049959663 0.049910109 0.049999978 0.049963124 0.049957514 0.049973704
0.050152119 0.050038554 0.050055221 0.050165925 0.05007067 0.050015666
0.050047174 0.050254684 0.050146848 0.050122857 0.050124701 0.05013274
0.050139356 0.050130274 0.050100438 0.050097033 0.050094549 0.049983062
0.049995344 0.049820624 0.049825087 0.04983329 0.049765006 0.04971125
0.049718842 0.049635429 0.049606245 0.049552888 0.049529016 0.04961928
0.049629468 0.04953656 0.049540877 0.049624749 0.049708601 0.049771491
0.049824618 0.049847059 0.049860206 0.050090764 0.050080754 0.050244272
0.050242182 0.050248563 0.050349567 0.050352588 0.050449476 0.050485402
0.050531581 0.050515141 0.050537396 0.050564695 0.050579619 0.050562937
0.050631922 0.050619368 0.050467722 0.050458629 0.050562255 0.050474085
0.050423004 0.050475072 0.050499171 0.050378401 0.050305404 0.050233912
0.050187986 0.050288755 0.050353069 0.050255664 0.050200507 0.050141081
0.050205659 0.05019258 0.050071802 0.050120879 0.05008164 0.050062828
0.050144691 0.050103959 0.050021008 0.05005233 0.050003499 0.05001672
0.05006022 0.049877789 0.049945239 0.049993705 0.049941786 0.049948558
0.049992487 0.050045159 0.049812146 0.049889069 0.049827039 0.049827039
0.049502488 0.049477335 0.049617924 0.049603999 0.049624104 0.049549278
0.04947697 0.049536731 0.049619038 0.049526032 0.04947361 0.049610253
0.049676429 0.049747933 0.049725369 0.049650602 0.049613953 0.049739573
0.049826834 0.049726989 0.049861882 0.049899124 0.04977075 0.04976755
0.049854781 0.04993844 0.049960036 0.049900126 0.049989235 0.049947534
0.049975071 0.049986541 0.050145529 0.050071381 0.050078053 0.050183535
0.050120533 0.050088182 0.050082292 0.050295189 0.050223932 0.050210807
0.050158933 0.050185155 0.05022737 0.050157614 0.050144132 0.050168093
0.050138656 0.050000776 0.050002888 0.049804632 0.049808089 0.049836505
0.049763091 0.049700651 0.049653251 0.049611274 0.049551461 0.04947257
0.049454395 0.049550105 0.049570609 0.049418718 0.049443379 0.049554922
0.049621254 0.049709149 0.049829531 0.049878191 0.04986516 0.050104763
0.050074872 0.050269678 0.050316919 0.050306413 0.050459143 0.050449297
0.050504733 0.050576046 0.050611638 0.050614826 0.050641034 0.050676335
0.050697178 0.050647683 0.050706778 0.050702706 0.050533157 0.050521132
0.050647005 0.050566044 0.050529443 0.050522845 0.050541859 0.050423246
0.050368644 0.050304327 0.050264172 0.050295062 0.050338387 0.050285392
0.050230026 0.050147898 0.050183274 0.050193273 0.050095126 0.05009963
0.050083499 0.050074618 0.050148971 0.050109461 0.049975723 0.050015341
0.049960822 0.049997631 0.050054338 0.049870193 0.049936 0.049948905
0.049927201 0.049923666 0.049934912 0.049980137 0.049795259 0.049845073
0.049751017 0.049751017 0.049396634 0.049430482 0.049543373 0.049518503
0.049526144 0.049506661 0.049415275 0.049428172 0.049526483 0.049443506
0.049409375 0.049565274 0.049632818 0.049681682 0.04964726 0.049614456
0.0496049 0.04968537 0.049738172 0.049687963 0.049832951 0.049875937
0.049776006 0.049741738 0.049817067 0.049932171 0.049955983 0.049918462
0.049999587 0.049952723 0.049999375 0.050006453 0.050131243 0.050108481
0.05012133 0.050199185 0.050162576 0.050184961 0.050159518 0.050315239
0.05029859 0.050299775 0.050209317 0.050260995 0.050330285 0.050200604
0.050196961 0.050249375 0.050187897 0.050040819 0.05000646 0.049813498
0.04982882 0.04983652 0.049752966 0.049703777 0.049606953 0.049558077
0.04947383 0.049388926 0.04940388 0.049461894 0.049479146 0.049306206
0.049346667 0.049489539 0.049537357 0.049665138 0.049820509 0.049896091
0.049871258 0.050099459 0.050085884 0.050305102 0.050390869 0.05037896
0.050585449 0.050569311 0.05059329 0.050679632 0.050699532 0.050732151
0.050762724 0.050804775 0.05082716 0.050750732 0.050773129 0.050775185
0.050621014 0.050603028 0.050745498 0.05066162 0.050652683 0.050560366
0.050564367 0.050489824 0.050444044 0.050390616 0.050353549 0.050308131
0.050310165 0.05030603 0.050253566 0.05015751 0.050165895 0.050180864
0.050111279 0.050071046 0.050089404 0.05010112 0.05014224 0.05008354
0.049921844 0.049976125 0.049927711 0.04997132 0.050003674 0.049840916
0.049905699 0.04989019 0.049902532 0.049901813 0.049856115 0.049900115
0.04978428 0.04977306 0.049695998 0.049695998 0.049277615 0.049361806
0.049448758 0.049418397 0.049408156 0.049461298 0.049362592 0.049331866
0.049417958 0.049336154 0.04933602 0.049507789 0.04957379 0.049618587
0.049582828 0.049563222 0.04959156 0.049633898 0.049647316 0.049646802
0.04977959 0.049821358 0.04976806 0.049722698 0.049768243 0.049900983
0.049945254 0.049958237 0.050026938 0.049972821 0.050023839 0.050036509
0.050126005 0.05014766 0.050183401 0.050220914 0.050199918 0.050299231
0.050277147 0.050333865 0.050361615 0.050378509 0.050283346 0.05035707
0.050437815 0.050274145 0.05026773 0.05033974 0.050237045 0.050096978
0.050025098 0.04985493 0.049873501 0.049829587 0.049741842 0.049703721
0.049566071 0.04948904 0.049390178 0.049304884 0.049358357 0.049352191
0.049351782 0.049211137 0.049249765 0.049430687 0.04947238 0.049638197
0.049797002 0.049891073 0.049882866 0.050083917 0.050121665 0.050357856
0.050458413 0.050455838 0.050712779 0.050699487 0.050721325 0.050811384
0.050809566 0.050868426 0.050901555 0.05094241 0.050955486 0.05087316
0.050844014 0.050849006 0.050731435 0.050706662 0.050844792 0.050756987
0.050772652 0.050600421 0.050591882 0.050575458 0.050525647 0.050479077
0.050439827 0.050333828 0.050285079 0.050309818 0.050269689 0.050169148
0.050152998 0.050161555 0.050116003 0.050049324 0.050098203 0.050129503
0.050120875 0.050025079 0.049877141 0.049943797 0.04989697 0.049924694
0.049914982 0.049786091 0.049845282 0.049822688 0.049867854 0.049867079
0.049758095 0.049814157 0.049764238 0.04968404 0.049669009 0.049669009
0.049146459 0.049266294 0.049332879 0.049300615 0.049287986 0.049411971
0.049314767 0.049236804 0.049299613 0.049217101 0.049250428 0.049422551
0.049490135 0.049551312 0.049530391 0.04950504 0.049559865 0.049585387
0.049570311 0.049605899 0.049717043 0.04974534 0.049734365 0.049705822
0.049724031 0.049850758 0.049922343 0.049994513 0.050056119 0.050002806
0.050049506 0.050073437 0.050142284 0.050195042 0.050259482 0.050256032
0.050247528 0.050419763 0.050418578 0.050371792 0.050418288 0.050451022
0.050382506 0.050468434 0.050543476 0.050384186 0.050364431 0.050440192
0.050291069 0.050161932 0.050072815 0.049925968 0.049919363 0.049814876
0.049741786 0.049689654 0.049519408 0.04942314 0.049313329 0.049216598
0.049291786 0.049224228 0.049198229 0.049127355 0.049152955 0.049372125
0.049426101 0.049610965 0.049764164 0.049871597 0.049907409 0.050073516
0.050183244 0.050427601 0.050527871 0.050533067 0.050827011 0.050829381
0.050884463 0.050976306 0.050953746 0.051032867 0.051054548 0.051087476
0.05108007 0.051010009 0.050924353 0.050941423 0.050862521 0.050824333
0.05093687 0.050849337 0.050877351 0.050658148 0.050646707 0.050671518
0.050613485 0.050563101 0.050507046 0.050369438 0.050273832 0.050295919
0.050278399 0.050178882 0.050144546 0.050141387 0.050107248 0.050038543
0.050108589 0.050141793 0.050073259 0.049945932 0.049850516 0.049918037
0.049859203 0.049851395 0.049803216 0.049714833 0.049758937 0.049752545
0.049819343 0.049805462 0.049650058 0.049726311 0.049722195 0.049592037
0.049659014 0.049659014 0.049007282 0.049151823 0.049200751 0.049157813
0.049171556 0.049353465 0.049259879 0.04913307 0.049171623 0.049096562
0.049160924 0.04931061 0.049382642 0.049464297 0.049480151 0.049445845
0.049505133 0.049533635 0.049511768 0.049565788 0.049657069 0.049663451
0.049680993 0.049684659 0.049695481 0.0498005 0.049882837 0.050004035
0.050067659 0.050033495 0.050077148 0.050109897 0.050177921 0.050253026
0.050342776 0.050310183 0.05031874 0.050537225 0.050561212 0.050438996
0.050482336 0.050533585 0.050507799 0.050595332 0.050643936 0.050522793
0.050491277 0.050553862 0.05036103 0.050228536 0.050147478 0.050020818
0.049948424 0.049801204 0.049757604 0.049662508 0.049468506 0.049370006
0.049250163 0.049121156 0.049184062 0.049083851 0.049036421 0.049049515
0.049060456 0.049299631 0.049389265 0.049572967 0.049727697 0.049856119
0.049949095 0.050084889 0.050271202 0.050515186 0.050614543 0.050614145