# vtk DataFile Version 3.0
axinsert(project(permute(???,2,0,1),0,L2),2)
ASCII
DATASET STRUCTURED_POINTS
DIMENSIONS 128 256 1
ORIGIN 0 0 0
SPACING 1 1 1
POINT_DATA 32768
SCALARS nrrd59345 float
LOOKUP_TABLE default
0.050007008 0.0499801 0.049960021 0.050019335 0.049990069 0.049963135
0.049995013 0.050009031 0.049999062 0.050056305 0.050013039 0.050041087
0.050068587 0.049944077 0.049959105 0.049975999 0.050000016 0.049940083
0.049996808 0.050037026 0.050015137 0.050022025 0.050006073 0.049995001
0.049984001 0.049968012 0.04997246 0.050034642 0.049987249 0.049999692
0.049996126 0.050024692 0.049991 0.049971994 0.049950112 0.050005138
0.050032459 0.05001964 0.050032429 0.050054125 0.050035175 0.049982022
0.050058641 0.050023746 0.049941078 0.049964014 0.049988061 0.049973007
0.049979333 0.050050177 0.050022021 0.04995501 0.049963076 0.049922224
0.050028034 0.050097011 0.050034035 0.05001403 0.049966007 0.049995214
0.050000012 0.049966168 0.050013222 0.05000902 0.049934059 0.050011043
0.05005708 0.050029024 0.049995158 0.050004147 0.049971357 0.05000601
0.050026137 0.049982008 0.050002363 0.0500171 0.049945313 0.049950026
0.04999252 0.050032094 0.050019089 0.049960084 0.050030511 0.050046001
0.049973004 0.049982224 0.05000126 0.049995046 0.049968213 0.05001967
0.050035007 0.049959127 0.050003316 0.050025206 0.050030094 0.049966063
0.049987264 0.050042052 0.050033037 0.04993118 0.049968466 0.050053
0.049970005 0.049985189 0.050041001 0.049980007 0.050004106 0.050049003
0.050003063 0.050006036 0.049989153 0.049946059 0.050009221 0.049985047
0.049978144 0.050007354 0.05002901 0.050031293 0.050023001 0.049972005
0.049950093 0.050028697 0.050018076 0.049986403 0.050007999 0.050006155
0.050012004 0.050012004 0.050005998 0.050011214 0.049887031 0.050009135
0.050044004 0.049968001 0.049978014 0.049995072 0.049968001 0.050013032
0.050006378 0.050166328 0.050141029 0.049904309 0.04992703 0.04994826
0.04996606 0.04989332 0.050013088 0.050062012 0.050014187 0.050083142
0.050002132 0.050004229 0.049879119 0.049831156 0.049900465 0.050016951
0.050037865 0.049967386 0.050032713 0.050030086 0.050047472 0.049994424
0.049879871 0.0499755 0.050036412 0.049922064 0.050091933 0.050061904
0.050026093 0.049964409 0.050127123 0.050109737 0.04996122 0.049962822
0.049953766 0.049938127 0.049963269 0.050098944 0.050078567 0.049971722
0.04993343 0.04980946 0.050046794 0.050239522 0.049979489 0.05001279
0.049995333 0.049986333 0.049999084 0.049973577 0.049966924 0.049973026
0.049979657 0.04999255 0.050088704 0.049997862 0.049961563 0.050000232
0.049974464 0.050016209 0.050132543 0.049944624 0.050014116 0.050058402
0.049932908 0.049983222 0.050020758 0.050033342 0.049979616 0.04993378
0.050045505 0.05008401 0.049966354 0.049918547 0.050004572 0.050034087
0.049936362 0.050066493 0.050044291 0.049918741 0.049966123 0.050046235
0.050101109 0.050026026 0.049974002 0.050117601 0.050100002 0.04982432
0.049926013 0.050136045 0.049933009 0.049947005 0.050130002 0.049964011
0.049993001 0.05008905 0.049954072 0.050037041 0.049950037 0.049884088
0.049991004 0.049955383 0.050008029 0.050033055 0.049986005 0.050047349
0.050030045 0.049951505 0.049903054 0.050036117 0.050038051 0.049972337
0.050040059 0.050096139 0.050050121 0.050050121 0.049975004 0.050035175
0.049925003 0.049971029 0.050082013 0.050015088 0.049918011 0.049963415
0.050011076 0.049871098 0.049947679 0.050143201 0.050072528 0.049998812
0.049930628 0.049967948 0.049967509 0.049935911 0.050101358 0.050002247
0.049957614 0.050055802 0.049998872 0.04993904 0.049850941 0.049839206
0.049855229 0.049922716 0.050062399 0.049938999 0.050033882 0.050061122
0.050068378 0.050038408 0.049942646 0.049934234 0.049950581 0.049891949
0.050077099 0.049988136 0.049963426 0.04999448 0.050059978 0.050115619
0.05007739 0.050081279 0.049923278 0.049913954 0.049990736 0.050069466
0.050081141 0.050014295 0.049957231 0.049861979 0.050001755 0.050168715
0.049895156 0.050003894 0.050056692 0.049992673 0.049964923 0.050013516
0.049970932 0.049957439 0.050093077 0.04996375 0.050040755 0.049948085
0.049948104 0.049967147 0.050047971 0.050053861 0.050098348 0.049957644
0.050004549 0.050035723 0.050015725 0.050112661 0.050017364 0.050040476
0.049959298 0.050007943 0.050034855 0.050089922 0.050035164 0.049899437
0.049932085 0.050026398 0.050008185 0.050074663 0.05002442 0.050010178
0.049978469 0.050004732 0.050082512 0.05008145 0.049972486 0.050075646
0.050116677 0.049906656 0.050048053 0.050105244 0.050001062 0.049996998
0.050073005 0.049963091 0.050018001 0.050026018 0.049898077 0.049978144
0.049990408 0.049955003 0.049911033 0.049966224 0.050074 0.050035134
0.049927998 0.050024334 0.050019 0.049978204 0.049991012 0.050032005
0.049999066 0.049974021 0.050078042 0.050118003 0.050050002 0.050050002
0.049932003 0.049950197 0.049998175 0.049999017 0.050011076 0.049993422
0.049847197 0.049963705 0.050083332 0.049826525 0.0499525 0.050030351
0.049990945 0.050040282 0.049911752 0.049973 0.049960792 0.049942233
0.050171759 0.049984988 0.049898759 0.050016671 0.049992379 0.04986437
0.049857236 0.049914278 0.049851004 0.049877021 0.04999486 0.049921416
0.050000317 0.050094835 0.050029669 0.049999889 0.050009143 0.049907766
0.049925163 0.049965896 0.050044052 0.0499756 0.049965493 0.050017327
0.049991082 0.050070751 0.050110467 0.05016062 0.049898352 0.049906667
0.050011732 0.050046109 0.050077591 0.050009493 0.049982652 0.049880914
0.049961533 0.050098043 0.049893416 0.050025228 0.050042488 0.049970325
0.049939588 0.04999071 0.050027549 0.049964465 0.05009203 0.049969058
0.05003367 0.049986728 0.049963631 0.049968354 0.050067328 0.050059602
0.0500389 0.049967263 0.050000448 0.049987704 0.050064091 0.050146598
0.049960893 0.050104242 0.050047394 0.05006789 0.050053138 0.050147664
0.050065953 0.049934462 0.049895976 0.050024144 0.05003516 0.050032109
0.050097909 0.050072704 0.050059114 0.050015781 0.049998362 0.050036807
0.049988624 0.050058331 0.050079647 0.05001707 0.05016749 0.05012181
0.050080419 0.050046284 0.050045136 0.049965244 0.050051019 0.049974151
0.049881224 0.049912136 0.050063405 0.050039005 0.049860023 0.049985044
0.050059006 0.050048154 0.049919005 0.050030198 0.050051998 0.049995027
0.05009602 0.050069094 0.049956065 0.049955036 0.050077029 0.050050005
0.050056048 0.050056048 0.049903005 0.049868077 0.050031107 0.050020061
0.049911138 0.049966682 0.049846377 0.049930528 0.050056912 0.049837228
0.049984712 0.049928043 0.049897932 0.050030172 0.049969219 0.049956094
0.04993172 0.04992957 0.050145071 0.050001714 0.049873076 0.049981941
0.049939875 0.049861278 0.049861562 0.049967051 0.049879953 0.049847528
0.049915675 0.049915824 0.049983021 0.05004308 0.049987946 0.049936187
0.050022636 0.049948767 0.049931392 0.049995385 0.050010338 0.049983364
0.049983945 0.050041474 0.04995548 0.050013497 0.050090861 0.050157756
0.049930755 0.049958434 0.050030913 0.050011415 0.050056554 0.050018441
0.049989592 0.049886972 0.049989145 0.05004365 0.04989681 0.050055563
0.049994241 0.049922269 0.049945284 0.049968634 0.050045151 0.049943678
0.050055716 0.050005693 0.049994964 0.050038446 0.049964048 0.050011363
0.050074261 0.050050043 0.050039519 0.049959246 0.050028015 0.04996169
0.050090782 0.050176602 0.049910985 0.050135367 0.050141297 0.050090596
0.05006909 0.05016727 0.050075855 0.049979791 0.0499775 0.050095428
0.050020855 0.04999971 0.050176941 0.050080456 0.050131824 0.050081681
0.049948521 0.050035048 0.050040953 0.05006225 0.050029945 0.050085533
0.050224021 0.050124928 0.050112028 0.05008176 0.050087597 0.050035395
0.050053056 0.049922459 0.049913239 0.049916115 0.050091073 0.050110079
0.049865998 0.049981009 0.050025001 0.050077066 0.04992203 0.04999803
0.050113015 0.050018001 0.050139003 0.050071005 0.049956005 0.049958058
0.050034013 0.049993001 0.050096031 0.050096031 0.049904037 0.04985502
0.050010022 0.049990114 0.049824156 0.049925625 0.049878545 0.049854472
0.049965512 0.049862515 0.049978349 0.049862042 0.049839236 0.050016694
0.050045621 0.049925726 0.04989519 0.049910396 0.050043561 0.049991902
0.049881484 0.049949698 0.049887415 0.049895912 0.049875516 0.049977511
0.049890541 0.049824826 0.049887136 0.049907096 0.049976509 0.04996147
0.04995691 0.049900532 0.049974956 0.049996275 0.049941257 0.049982652
0.049983636 0.050010175 0.050020758 0.050052058 0.049940739 0.049976636
0.05005338 0.050104242 0.049989086 0.05000937 0.050026909 0.050001118
0.050026909 0.05000975 0.049956437 0.049919676 0.050034385 0.050004601
0.049900819 0.050060544 0.049957313 0.049864758 0.049976349 0.049959611
0.050023265 0.049909864 0.049985841 0.050029375 0.049946126 0.050053507
0.049968787 0.050027218 0.050087053 0.050068885 0.050074767 0.049964178
0.050073095 0.05001371 0.050114751 0.050202359 0.049920261 0.050144784
0.050208408 0.050087705 0.050079744 0.050159998 0.050109897 0.050014157
0.050085634 0.050202526 0.050024606 0.050019883 0.050216537 0.050083429
0.050148163 0.050135355 0.04995824 0.050096709 0.050086103 0.050060853
0.050039977 0.050133251 0.05025829 0.05011585 0.050109338 0.050121859
0.050123833 0.050133649 0.050036129 0.049896747 0.049989164 0.04998016
0.050078008 0.050125252 0.04992 0.049986012 0.050009008 0.050103031
0.049954049 0.049930014 0.050101019 0.050051033 0.05012 0.050041124
0.050009035 0.050007004 0.050003037 0.049965005 0.05010901 0.05010901
0.049896106 0.04987802 0.049966052 0.049945224 0.049768247 0.049862564
0.04987878 0.049777765 0.049884692 0.049861573 0.049926128 0.049823619
0.049828704 0.049989652 0.050073523 0.049906805 0.049854808 0.049902681
0.049929064 0.049936701 0.049889881 0.049919784 0.04986386 0.049927443
0.04989329 0.04996796 0.049865611 0.049812164 0.049897105 0.04989681
0.049958471 0.049903739 0.049921114 0.049889226 0.049922094 0.049996492
0.049963888 0.049982268 0.049985409 0.050033852 0.050053034 0.050040614
0.04993948 0.049969569 0.050022218 0.050062969 0.050039124 0.050009526
0.050005015 0.050004628 0.049984775 0.04998973 0.049910456 0.049943686
0.050045155 0.049972661 0.049905531 0.050036095 0.049949899 0.049832519
0.050001804 0.0499442 0.049988195 0.049897756 0.049903858 0.050018545
0.049916778 0.050024796 0.04999027 0.050005142 0.050070904 0.050112568
0.050116446 0.049998775 0.050132912 0.050122727 0.050146744 0.050212804
0.049987204 0.050177377 0.050246809 0.050084908 0.050106775 0.050166052
0.050181165 0.050050128 0.050151587 0.050282236 0.050075863 0.050072376
0.050216191 0.050117694 0.050130922 0.050169788 0.050001182 0.050149459
0.050127514 0.050079454 0.050102882 0.050171334 0.050285432 0.05011702
0.050108299 0.050158918 0.050124899 0.050210908 0.050037321 0.049907818
0.050062161 0.050075307 0.050056033 0.050083432 0.049989011 0.050011083
0.050008003 0.050118066 0.050016005 0.049883015 0.050016001 0.050064132
0.050081003 0.050024353 0.050081007 0.050079014 0.049999084 0.049964018
0.050078113 0.050078113 0.049862146 0.049882032 0.049903225 0.049905404
0.049737554 0.049802646 0.049839146 0.049730252 0.049841661 0.04981678
0.049865805 0.049802758 0.049838137 0.049935676 0.050034527 0.049905181
0.049815748 0.049894195 0.049832288 0.04986614 0.049879313 0.0498918
0.04985347 0.049932521 0.049911611 0.049960125 0.049829867 0.049801387
0.049908333 0.049892224 0.049925737 0.049881671 0.04987533 0.049865332
0.049907796 0.049964052 0.050004225 0.050008491 0.050009251 0.050027687
0.050044987 0.050028984 0.04995833 0.049982946 0.049995456 0.050055265
0.050067395 0.049964651 0.049980793 0.050008744 0.049939759 0.049978599
0.049884092 0.049925476 0.050011437 0.04994325 0.04989589 0.050004516
0.049956676 0.049833063 0.049991582 0.049923912 0.049965102 0.049906183
0.049847122 0.049975555 0.049913634 0.049973652 0.050009824 0.049973205
0.050026439 0.050153244 0.050154347 0.050057381 0.050189417 0.050221954
0.050196029 0.050228368 0.050071534 0.050252628 0.050280154 0.050096698
0.050166283 0.050194543 0.050260823 0.050103664 0.05018736 0.050312981
0.05015393 0.050130446 0.050192952 0.050185982 0.05013597 0.050206147
0.050056964 0.050161589 0.050178725 0.050128426 0.050166734 0.050189517
0.050301604 0.050137378 0.05012222 0.050185073 0.050122928 0.050252933
0.050057597 0.049945779 0.050103221 0.050163496 0.050048999 0.050030503
0.050039049 0.050035268 0.05001701 0.050113209 0.050076041 0.049898021
0.049943004 0.05005116 0.050041005 0.050038371 0.050148007 0.050131053
0.049996059 0.049981061 0.050044116 0.050044116 0.049811121 0.049847063
0.049823426 0.049857575 0.049719077 0.049759783 0.049780641 0.049714603
0.049812786 0.049744219 0.04982226 0.049793005 0.049836539 0.049874317
0.049946062 0.049894817 0.04977997 0.049867958 0.049753107 0.04980864
0.049858935 0.049856622 0.049833562 0.049921904 0.049920939 0.04995909
0.049809322 0.049792778 0.049907431 0.049883891 0.049890216 0.049884386
0.049843226 0.049829282 0.049932431 0.049934849 0.050036367 0.050030194
0.050028324 0.050001726 0.049999654 0.050029755 0.04999778 0.050006021
0.049969748 0.050064147 0.050073501 0.049910575 0.04995897 0.050011799
0.049912222 0.049977496 0.04988423 0.049882371 0.049953483 0.049914777
0.049872231 0.049970277 0.049945351 0.049840122 0.049942505 0.049907055
0.049948964 0.049917616 0.049830023 0.049912166 0.049926534 0.049928542
0.050018076 0.04996166 0.049987022 0.050174218 0.050189398 0.050121196
0.050221208 0.05027315 0.05025319 0.050267652 0.050140291 0.050353549
0.050336972 0.050126158 0.05024701 0.050235432 0.050322004 0.050185144
0.050234288 0.050314546 0.050232232 0.050197829 0.050179601 0.050263528
0.050187442 0.050254822 0.050122064 0.050167181 0.0502376 0.050182153
0.050205708 0.050186608 0.050301742 0.050171718 0.050149165 0.050206166
0.050145846 0.050268743 0.050069757 0.049995709 0.050123289 0.050218537
0.050063092 0.050007422 0.050056092 0.050044421 0.050029065 0.050088335
0.050115179 0.049965173 0.049934 0.050036099 0.050012 0.050067209
0.050196029 0.05014006 0.04998301 0.050002109 0.05004504 0.05004504
0.049756076 0.049789127 0.04974243 0.049785648 0.049699444 0.049724899
0.049722128 0.049714733 0.049769182 0.049673766 0.049786519 0.049781665
0.049808007 0.049823668 0.049843404 0.049851522 0.049745351 0.049827926
0.049690817 0.049762994 0.049837518 0.049809191 0.049799755 0.049914856
0.049909838 0.049949098 0.049805954 0.049801167 0.049904067 0.04986437
0.049864486 0.049887169 0.049841885 0.049814038 0.049968556 0.049925666
0.050028756 0.050020721 0.050029043 0.049983807 0.049958814 0.050030634
0.050036307 0.050029319 0.049952481 0.050064757 0.050058935 0.04987305
0.049930304 0.050008934 0.049914081 0.049983319 0.049894813 0.049843125
0.049892958 0.049882252 0.049850177 0.049931295 0.049904782 0.049830791
0.0498753 0.049887426 0.049924295 0.049919188 0.049837757 0.049846198
0.049944166 0.049905326 0.050015572 0.049984928 0.049980626 0.050172407
0.05022442 0.05017918 0.05023177 0.050282735 0.050293524 0.050323285
0.050189998 0.050442539 0.050421469 0.050175071 0.05032498 0.050280355
0.050368421 0.050288144 0.050313398 0.050321084 0.050306648 0.050285198
0.050212178 0.050330169 0.050257232 0.050312433 0.050195526 0.050197788
0.050283536 0.050221134 0.050230902 0.050182685 0.050288789 0.050214972
0.050192092 0.050237153 0.050190646 0.050266597 0.050068706 0.050044585
0.050143294 0.050231412 0.050086282 0.050021306 0.050048131 0.050043397
0.050043117 0.050058287 0.05013122 0.050045241 0.049973998 0.050043046
0.050000012 0.05008506 0.050217032 0.05010904 0.049965002 0.050018106
0.050082006 0.050082006 0.049700033 0.049732223 0.049676295 0.049688697
0.049673483 0.049681041 0.049665399 0.049708884 0.049704742 0.049622204
0.049739681 0.049758527 0.049755495 0.049780205 0.049758069 0.049778726
0.049704589 0.049789492 0.049655028 0.04971958 0.049810685 0.049752384
0.049766254 0.049915865 0.049874246 0.049917269 0.049814295 0.049832936
0.049900431 0.049830459 0.049861278 0.049871128 0.049857635 0.049840644
0.049988657 0.049931232 0.049987383 0.049990479 0.050019998 0.049987748
0.049961761 0.050016209 0.050050832 0.050045174 0.049953524 0.050045654
0.050031841 0.049863439 0.049886867 0.049992919 0.049935251 0.049991693
0.049893927 0.049812358 0.049840949 0.049845118 0.04984042 0.04988756
0.049838483 0.049797278 0.049811572 0.049850367 0.049882025 0.049912635
0.049844056 0.049793497 0.049959499 0.049898028 0.050006412 0.050029136
0.050000381 0.050156493 0.050259117 0.050227303 0.050244335 0.050280843
0.050310064 0.050377276 0.050236579 0.050495893 0.050506856 0.050249815
0.050394472 0.050335977 0.050418973 0.050404761 0.050417975 0.050354794
0.050381728 0.050388493 0.050301999 0.050382823 0.050316378 0.050376404
0.050270323 0.050250776 0.050307836 0.05024641 0.050260246 0.050197799
0.050267749 0.050265148 0.050254017 0.050284103 0.050238457 0.050256606
0.050074536 0.050087426 0.050165236 0.050216284 0.05010036 0.050053261
0.050039161 0.050046284 0.050064106 0.050042138 0.050131131 0.050103176
0.050026007 0.050072018 0.050007023 0.050086003 0.050217018 0.05006402
0.049949009 0.050031044 0.050129 0.050129 0.049643014 0.049682286
0.049622204 0.049576767 0.049636357 0.049625318 0.04960838 0.049684271
0.049637247 0.049593545 0.049677819 0.049724184 0.049690887 0.04972123
0.049698133 0.049704157 0.049658395 0.049754061 0.049645875 0.049677372
0.049763471 0.049695179 0.049741916 0.049912062 0.049820509 0.049868301
0.049825996 0.049875978 0.049888015 0.049794182 0.049878709 0.049836989
0.049867686 0.049889892 0.049985275 0.049944412 0.049939636 0.049967498
0.050014421 0.050004482 0.050010793 0.049991351 0.050036054 0.050048508
0.049973212 0.050014235 0.049997885 0.049876235 0.049840026 0.049962308
0.0499577 0.04999854 0.049872849 0.049780421 0.049798295 0.049808033
0.049835403 0.049840432 0.04976115 0.049745686 0.049764294 0.049791932
0.049821291 0.049893383 0.049833674 0.049760547 0.049963981 0.049892377
0.049991172 0.050077178 0.050026245 0.050134711 0.05028953 0.05026513
0.050282847 0.050294586 0.050318919 0.050426606 0.050298203 0.05051858
0.050569516 0.050347641 0.050462443 0.0504063 0.050489616 0.050524484
0.050523296 0.050424661 0.050462365 0.050480857 0.050426252 0.050423376
0.050365899 0.050448842 0.050341424 0.050318241 0.050323434 0.050277743
0.050300546 0.050235927 0.050249666 0.050314113 0.050323997 0.050342079
0.050276417 0.050250694 0.05010939 0.050121281 0.050183184 0.050192218
0.050097302 0.050082278 0.050046161 0.050063178 0.050097059 0.050042044
0.050118044 0.050131097 0.050067011 0.050113007 0.05002502 0.050078005
0.050203007 0.050034001 0.049941 0.050039999 0.050154001 0.050154001
0.049589012 0.049630281 0.049566228 0.049467862 0.049583241 0.049567729
0.049545228 0.049633946 0.049583547 0.049577989 0.049613029 0.049682647
0.049625281 0.049637698 0.049655121 0.049651224 0.049613778 0.0497129
0.049648512 0.049638063 0.049692262 0.049645748 0.049731288 0.04988819
0.049756985 0.04981773 0.049833335 0.049906809 0.049862307 0.049767606
0.049907085 0.04980132 0.049861886 0.049931742 0.049969338 0.049963553
0.049912207 0.049965452 0.050018061 0.050016023 0.050075825 0.04997113
0.050005607 0.050043698 0.05000199 0.049986154 0.049961239 0.049899124
0.04981323 0.049931623 0.04996141 0.049989093 0.049833775 0.049735785
0.049757715 0.049781561 0.049826149 0.049782384 0.049686007 0.049685799
0.049725667 0.049718861 0.049748678 0.049854167 0.049809251 0.049739245
0.049947944 0.049881186 0.04996774 0.050112851 0.050046161 0.050111089
0.050306477 0.050285783 0.050346944 0.050340325 0.050343506 0.050481558
0.050383911 0.050538275 0.050608512 0.050459795 0.050535172 0.050494771
0.050584998 0.05063745 0.050609007 0.05052552 0.050549902 0.050545212
0.050547659 0.050457958 0.050424352 0.050527669 0.050404556 0.05039905
0.050357055 0.050327949 0.050348654 0.050292004 0.050247539 0.050355792
0.050386984 0.050393045 0.050307538 0.050261691 0.050170343 0.050146207
0.050188195 0.050177205 0.05008522 0.050100271 0.050073147 0.050093103
0.050136026 0.050050013 0.050100006 0.050136048 0.050095014 0.050151005
0.050050005 0.050074011 0.050193004 0.050030004 0.049945015 0.050037015
0.050140005 0.050140005 0.04953802 0.049565248 0.049496364 0.049376972
0.049511213 0.049513195 0.049474157 0.049568702 0.049544632 0.049560662
0.049555406 0.049634304 0.049566984 0.049547229 0.049619753 0.049616564
0.049577124 0.049665995 0.049645144 0.049594499 0.049607325 0.049607474
0.049724992 0.049843054 0.049692836 0.049777411 0.049828812 0.049912203
0.049834304 0.049764864 0.049926773 0.049779415 0.049849886 0.049950812
0.049957484 0.049991209 0.049910918 0.049972948 0.050031565 0.050012287
0.050118838 0.049966011 0.049978867 0.050039042 0.050031956 0.049974587
0.049926285 0.049917094 0.049822673 0.049915694 0.049939882 0.049954489
0.049788542 0.049685121 0.049712501 0.049765229 0.049809612 0.049704775
0.04961092 0.049622495 0.04968597 0.049642194 0.049666371 0.049787197
0.049776513 0.049723092 0.049905535 0.049864281 0.049937654 0.050124731
0.050059561 0.05009177 0.050307192 0.050295494 0.050421771 0.050414354
0.050393153 0.050548203 0.050494451 0.05058068 0.050647061 0.050581247
0.050612949 0.050601564 0.050695598 0.050735332 0.050673373 0.050637893
0.050643723 0.050589234 0.050641622 0.050495684 0.050504938 0.050608467
0.050461207 0.050493784 0.05041936 0.050397981 0.050397601 0.050359044
0.050274383 0.050388351 0.050428938 0.050418973 0.050342757 0.050293557
0.050233386 0.050162185 0.050187252 0.050180189 0.050078172 0.050110187
0.050111122 0.050130043 0.05017101 0.050060999 0.050083 0.050121013
0.050117023 0.050170999 0.050076004 0.050083011 0.050194003 0.050050016
0.04995805 0.050021041 0.050096009 0.050096009 0.049488034 0.049481288
0.049414605 0.049311098 0.049424253 0.049457557 0.049400304 0.049502242
0.049504664 0.049523469 0.049501121 0.049576391 0.049515214 0.049476314
0.049585216 0.049582575 0.049545065 0.049618173 0.049628165 0.049545188
0.049525775 0.049576707 0.049708292 0.049783118 0.049637977 0.049745902
0.049808804 0.049891494 0.049816683 0.049785361 0.049926054 0.049772203
0.049845457 0.049951866 0.049957711 0.050021619 0.049926002 0.049974758
0.050047096 0.050002266 0.050127331 0.049977694 0.049969684 0.050043486
0.050056037 0.049982298 0.049905378 0.049925704 0.049863081 0.04991905
0.049898531 0.049900539 0.049751889 0.049640369 0.049661107 0.049745776
0.049782891 0.049604278 0.049530521 0.049552675 0.04963427 0.049566809
0.049578987 0.049695499 0.049734123 0.049698714 0.049843613 0.049846545
0.049900815 0.050104626 0.050066851 0.050084673 0.0503029 0.050310042
0.050486583 0.050503585 0.050464153 0.050625186 0.050621673 0.050652068
0.050703011 0.050707437 0.050698437 0.050720889 0.050813198 0.050818436
0.050735526 0.05074947 0.050741788 0.050641678 0.050715756 0.050547455
0.050600201 0.050680812 0.050517917 0.050591882 0.050502185 0.050476857
0.050443489 0.050431062 0.050334252 0.050415955 0.050446846 0.050418839
0.050389893 0.050334375 0.050276473 0.050179195 0.050191298 0.050202142
0.050088137 0.050116062 0.050148092 0.050165005 0.050198011 0.050083008
0.050070003 0.05009 0.050128024 0.050173 0.05009203 0.050109006 0.050198998
0.050083011 0.049973052 0.049997028 0.050047006 0.050047006 0.049428053
0.049379431 0.049335856 0.04926927 0.049336333 0.049390715 0.049328655
0.049445458 0.049453884 0.049455166 0.049436204 0.049502831 0.049467009
0.049438983 0.049555071 0.049529325 0.049503896 0.049574766 0.04960208
0.049494166 0.049465802 0.049550693 0.049672201 0.049717352 0.049597356
0.049717426 0.049778335 0.049855523 0.0498151 0.049816605 0.049905334
0.049775589 0.049859162 0.049947083 0.049969461 0.050049484 0.049947061
0.049967512 0.050057642 0.050004341 0.050110757 0.049997512 0.049986638
0.050062787 0.050074112 0.050004866 0.049910605 0.049930673 0.049916063
0.049931772 0.049853384 0.049840894 0.049733505 0.049610842 0.04960382
0.04970431 0.049740244 0.049490344 0.049439341 0.049472306 0.049560253
0.049489647 0.049487729 0.049589939 0.049671162 0.049658637 0.049773082
0.049830355 0.049863774 0.05005369 0.050062533 0.050098892 0.050310258
0.050351549 0.050533656 0.050588891 0.050550479 0.05070284 0.050755508
0.050748017 0.050787851 0.050836727 0.050796025 0.050846852 0.050927218
0.050896637 0.050817292 0.050855082 0.050840467 0.050722361 0.050790064
0.05062582 0.050694603 0.050742511 0.050583709 0.050681196 0.050584536
0.050545502 0.050479285 0.050503917 0.050422125 0.050445631 0.050451722
0.050406605 0.050443806 0.050370216 0.050294492 0.050204176 0.050210245
0.050233074 0.050120097 0.050128002 0.050174043 0.050194014 0.050215002
0.050117042 0.050065022 0.050052047 0.050119013 0.05016502 0.050090034
0.050142009 0.050200004 0.050119005 0.049980022 0.049975008 0.050016005
0.050016005 0.049352076 0.049263667 0.049267039 0.049240474 0.049260475
0.0493077 0.049257137 0.04939352 0.049389504 0.049359679 0.049351599
0.049416281 0.049414158 0.049423918 0.049524821 0.049455706 0.049443655
0.049532536 0.049576219 0.049451221 0.04943363 0.049527526 0.049615871
0.049651466 0.049572214 0.049687874 0.049744375 0.049813017 0.049821664
0.049842965 0.049872819 0.049785618 0.049894281 0.049945042 0.049982402
0.050069563 0.049967408 0.049957421 0.050061867 0.050033577 0.050095048
0.05002195 0.050026368 0.050094891 0.050089251 0.050039887 0.049945965
0.04994417 0.049964536 0.049942631 0.049825169 0.049790461 0.049724583
0.04959419 0.049545288 0.049629372 0.049669579 0.049379308 0.049341187
0.049376491 0.049454547 0.049401633 0.049393512 0.049477555 0.049577139
0.049593896 0.049699288 0.049809366 0.049829442 0.049985666 0.050046317
0.050136611 0.050337519 0.050424971 0.050573748 0.050662041 0.050647944
0.050780565 0.050885007 0.050862804 0.050902449 0.050963927 0.050913483
0.050975367 0.051036265 0.050984271 0.050932277 0.05096389 0.050936025
0.050831363 0.050880868 0.050729327 0.050778866 0.050801609 0.050671104
0.050753981 0.050649598 0.050592851 0.050506875 0.050571427 0.050524931
0.05047933 0.050456528 0.050398283 0.050493509 0.050394081 0.050294328
0.05024109 0.050239097 0.050261009 0.050168037 0.050153051 0.050188001
0.050216097 0.050224002 0.050150104 0.050072052 0.050013173 0.050096001
0.050154071 0.050073005 0.050158035 0.050190009 0.050149009 0.049974002
0.049964 0.050005998 0.050005998 0.049257115 0.049144868 0.049209155
0.049209684 0.049202733 0.049213704 0.04918066 0.049331743 0.049315702
0.049253248 0.04924728 0.049319651 0.049352422 0.049408894 0.049486648
0.049371675 0.049361099 0.049481861 0.049550556 0.04942007 0.049425688
0.049512502 0.049548615 0.049588114 0.049558099 0.049659234 0.049717199
0.049769107 0.049822785 0.049847823 0.049840685 0.049798526 0.049940962
0.049948499 0.049990851 0.050085332 0.049994096 0.049957614 0.050062526
0.050094668 0.050102774 0.050056044 0.050081991 0.050133146 0.050109476
0.050085362 0.050004464 0.049977604 0.050004855 0.049946383 0.049825728
0.049752697 0.049709484 0.049584985 0.049495097 0.049528554 0.04956447
0.049281329 0.049242202 0.049261499 0.049313094 0.04929461 0.049293146
0.049354613 0.049447771 0.049501173 0.049623333 0.049770087 0.049802516
0.049925372 0.050027963 0.050191842 0.050381266 0.050519496 0.050625712
0.050730444 0.050758164 0.05086726 0.051006231 0.050994616 0.051040694
0.051090561 0.051051177 0.051106323 0.051144436 0.051092759 0.051077135
0.051086146 0.051030371 0.050953776 0.050990373 0.050852548 0.050855361
0.050870243 0.050783552 0.050811704 0.05069958 0.050620999 0.050534144
0.050627653 0.050622545 0.050518069 0.050468232 0.050406024 0.050522156
0.050414 0.050290074 0.050287999 0.050267 0.050276019 0.050223999
0.050185241 0.050197069 0.050225265 0.050220087 0.050169177 0.050094131
0.049986336 0.050072066 0.050140191 0.050057031 0.050142113 0.050168
0.050166029 0.049955003 0.049965002 0.050002005 0.050002005 0.049148213
0.049033944 0.049151253 0.04916488 0.049154192 0.049117956 0.049093276
0.049241368 0.049236529 0.049150314 0.049133368 0.04922118 0.049280882
0.049372014 0.04942752 0.049291361 0.049270175 0.049417153 0.049515832
0.049393654 0.049428284 0.049506009 0.049486022 0.049527545 0.049548756
0.049636994 0.049698565 0.049724605 0.049809303 0.049831513 0.049814947
0.049812738 0.049985297 0.04995925 0.049995746 0.050102096 0.050030936
0.049980279 0.050067563 0.050175518 0.050147619 0.050110411 0.050146028
0.050175998 0.050148979 0.050140649 0.050077323 0.050034381 0.050044455
0.049948953 0.049852069 0.049724326 0.049679451 0.049574193 0.049455218
0.049419232 0.049430486 0.04919504 0.049141649 0.049127601 0.049138252
0.049163159 0.049181666 0.049211152 0.049284562 0.049380824 0.049532451
0.049702644 0.049778551 0.049893059 0.050017789 0.050256725 0.050434098
0.050619505 0.050706118 0.05080796 0.050885051 0.050976127 0.051124785
0.051142856 0.051198285 0.051226228 0.051208571 0.051248573 0.051266048
0.051223822 0.051241733 0.051227044 0.051127844 0.05107278 0.051109564
0.050983764 0.050935958 0.050955594 0.050909292 0.050860699 0.050745655
0.050649259 0.050568327 0.050674047 0.050696101 0.050564025 0.050488003
0.050431121 0.050526008 0.050437119 0.050294049 0.050329179 0.050287176
0.050277267 0.050278183 0.050220639 0.050199419 0.05022255 0.050199367
0.050170295 0.050125346 0.049976502 0.050055332 0.050122369 0.05004321
0.050103266 0.050137039 0.050163075 0.049929015 0.049970012 0.049980015
0.049980015 0.049027395 0.048935913 0.049084455 0.049096107 0.049096957
0.049028646 0.048995189 0.049118549 0.049146831 0.049056254 0.049020085
0.049125426 0.049203884 0.049307711 0.049343295 0.049218882 0.049186088
0.049339361 0.04946183 0.049359966 0.049426541 0.049502421 0.049440823
0.049469285 0.049532775 0.049621925 0.04968759 0.049686667 0.04978412
0.049802415 0.049801681 0.049825784 0.050014131 0.049978685 0.050005097
0.050122745 0.050080895 0.050029851 0.050087225 0.050260153 0.050224081
0.050191861 0.050214201 0.050228879 0.050218079 0.050204281 0.050153676
0.050111722 0.050094627 0.049961545 0.049890384 0.049702622 0.049638305
0.049559396 0.04942324 0.049322169 0.049284443 0.049107961 0.049030952
0.048970874 0.048944388 0.049005859 0.04904943 0.049036298 0.049096633
0.049237579 0.049419619 0.04960835 0.049753282 0.049893416 0.050026331