# vtk DataFile Version 3.0
axinsert(project(???,0,L2),2)
ASCII
DATASET STRUCTURED_POINTS
DIMENSIONS 256 1 1
ORIGIN 0 0 0
SPACING 1 1 1
POINT_DATA 256
SCALARS nrrd59345 float
LOOKUP_TABLE default
0 0 0 0 0 0 0 0 0 0 0 0 0 0 0 0 0 0 0 0 0 0 0 0 0 0 0 0 0 2.4494898e-06
1.9261361e-05 0.00013652838 0.00095823378 0.0063650394 0.039228261
0.21622643 0.97774589 2.2965932 1.4386257 1.5392892 1.3568721 0.94343978
1.1605519 1.5654827 1.8223635 1.755945 1.5221075 1.8020264 1.7568704
1.6500986 2.0466788 2.4806263 2.0968051 1.6232852 1.2937704 1.1038605
0.99974316 0.93845987 0.89801717 0.8686322 0.84546232 0.82596242 0.80888301
0.79346114 0.77928269 0.76609713 0.75374079 0.74208987 0.73105836
0.72058606 0.7106182 0.70107752 0.69194752 0.68345368 0.67532575 0.66764873
0.66036099 0.65325463 0.64613831 0.6390655 0.63235778 0.62632012 0.62098485
0.61620367 0.61206675 0.60752356 0.60266495 0.59830707 0.59303403
0.58771336 0.58249199 0.57718486 0.57076526 0.56413889 0.55994189
0.55774897 0.55770969 0.55813646 0.55652601 0.55347347 0.5478543 0.53952271
0.53187931 0.52503037 0.51787639 0.5105713 0.50887835 0.51361692 0.52134997
0.52959502 0.53304797 0.52809048 0.51117939 0.49071243 0.46902838
0.45745337 0.45818719 0.50631624 0.59671324 0.67983675 0.72808987
0.74320757 0.74284828 0.73324203 0.72225398 0.71489137 0.69855279
0.59178591 0.59178591 0.55072385 0.47442254 0.38206461 0.34320965
0.38247269 0.42514938 0.42104858 0.39324638 0.35342708 0.30993181
0.27645537 0.26320791 0.25797012 0.26522002 0.28634247 0.31809038
0.35291153 0.37893218 0.38960394 0.38699263 0.37402222 0.35356814
0.33185697 0.31675535 0.30972391 0.31344092 0.33103245 0.36099589
0.39745098 0.42735395 0.44097307 0.44120061 0.42969644 0.41029602
0.39262015 0.39149401 0.41888878 0.46833777 0.52302706 0.57345825
0.61947399 0.6636067 0.70692635 0.7485832 0.78718698 0.82039928 0.84576559
0.8644371 0.87450802 0.87235683 0.85867321 0.83627206 0.80829489 0.77835184
0.74791074 0.71760058 0.68675047 0.65506709 0.62227011 0.58797491 0.5508067
0.50940806 0.46358544 0.41381088 0.3616164 0.30967501 0.25904354 0.20371485
0.13093142 0.056106932 0.010977804 0.0010797847 9.7211108e-05 7.5498347e-06
0 0 0 0 0 0 0 0 0 0 0 0 0 0 0 0 0 0 0 0 0 0 0 0 0 0 0 0 0 0 0 0 0 0 0 0 0 0
0 0 0 0 0 0 0 0 0 0 0 0 0 0 0
