# vtk DataFile Version 3.0
axinsert(project(permute(???,2,0,1),0,L2),2)
ASCII
DATASET STRUCTURED_POINTS
DIMENSIONS 128 256 1
ORIGIN 0 0 0
SPACING 1 1 1
POINT_DATA 32768
SCALARS nrrd61739 float
LOOKUP_TABLE default
0.050062273 0.049979012 0.050015025 0.049991008 0.049994122 0.050034039
0.049988199 0.04997908 0.049969241 0.049977072 0.05001609 0.050044999
0.050022289 0.049955066 0.050017044 0.050000291 0.050014045 0.05001767
0.049952038 0.049995102 0.050019022 0.050023045 0.049991 0.049987044
0.049989 0.050013002 0.050000083 0.050003 0.049985006 0.04997905
0.050014004 0.04998102 0.049981002 0.049993005 0.049969029 0.050003048
0.050021 0.050013017 0.050027002 0.04994601 0.050021142 0.050024021
0.050027009 0.050035153 0.050006069 0.050002262 0.049943119 0.049990088
0.049983233 0.050001364 0.050049052 0.049987074 0.049954005 0.050009999
0.050004061 0.050014053 0.050068006 0.050035782 0.049984176 0.050001599
0.049976423 0.049998093 0.050016116 0.050029229 0.050002676 0.049980152
0.049986586 0.050007097 0.050010379 0.04997034 0.049989235 0.050017267
0.049991798 0.04994918 0.049965002 0.050020002 0.050055049 0.049981296
0.049930096 0.050024159 0.050050516 0.050039001 0.050019279 0.049952243
0.049969051 0.050008036 0.049975026 0.04998808 0.050054003 0.050043084
0.050009042 0.049973302 0.050011013 0.049998287 0.04996312 0.049967039
0.050056022 0.050012756 0.049957011 0.050039236 0.049965207 0.049976002
0.050045189 0.050002031 0.049938168 0.049993165 0.050049048 0.050034016
0.050021093 0.049995154 0.049953293 0.049981106 0.050042279 0.049992021
0.050026003 0.050009187 0.050000127 0.050005209 0.049953122 0.04998602
0.049941551 0.049960613 0.05006801 0.049977016 0.049999222 0.050032005
0.050011046 0.050011046 0.050089099 0.049930025 0.050014138 0.049998023
0.050019041 0.049993005 0.04996803 0.050023001 0.050000042 0.050000127
0.050010175 0.050059013 0.050032001 0.049900074 0.050010011 0.050012037
0.050059017 0.049959034 0.049947135 0.050003186 0.049987018 0.04998501
0.049997166 0.049984038 0.049976032 0.050083 0.049996026 0.050007999
0.050038096 0.049971111 0.049987126 0.049985051 0.050019197 0.050055567
0.049943414 0.049943533 0.049988117 0.049995251 0.050037999 0.049937192
0.049999006 0.050055116 0.050038025 0.050044008 0.05006402 0.05003915
0.049890358 0.049983084 0.049894568 0.050000012 0.050151851 0.049959008
0.049991846 0.0500574 0.0500721 0.049960289 0.050081354 0.050087519
0.050002512 0.050023481 0.049933657 0.049919505 0.04999318 0.050108161
0.050031438 0.049976267 0.049940601 0.049971152 0.050029129 0.050032176
0.05002372 0.050011471 0.049996458 0.049869336 0.049864605 0.050063245
0.050096557 0.049975999 0.049904104 0.050039042 0.050068907 0.049967069
0.050072029 0.049894307 0.049904998 0.050048254 0.049947001 0.049980391
0.050035 0.050069068 0.050069071 0.049980368 0.049957011 0.050049126
0.05003304 0.050013009 0.05007321 0.049938414 0.049974084 0.050106686
0.049911309 0.049965631 0.050015438 0.049950041 0.049885113 0.050002161
0.050076112 0.050018001 0.050053038 0.050050035 0.049914148 0.049924195
0.050074 0.04998203 0.050016999 0.050060015 0.04999204 0.049976025
0.049926028 0.050051998 0.049949113 0.049881324 0.050067998 0.049945008
0.049960002 0.050080013 0.050012 0.050012 0.050003029 0.049986001
0.049999028 0.050007001 0.050051015 0.049909033 0.049933001 0.050105017
0.05008506 0.05001701 0.049973015 0.049966 0.050005067 0.04993603
0.049993046 0.050002012 0.05003212 0.049927067 0.050025079 0.050042011
0.049938023 0.049967002 0.050012004 0.050029006 0.049970061 0.050094999
0.050019082 0.049962025 0.050083 0.050042033 0.04998612 0.050001156
0.050092116 0.050090507 0.049993187 0.049883977 0.049961191 0.049977135
0.049965188 0.049984526 0.049953174 0.050081328 0.050011404 0.050014198
0.050072495 0.050077152 0.049976788 0.049972624 0.049904808 0.050063275
0.050126441 0.049973045 0.050087597 0.050095662 0.050101887 0.049928676
0.049972884 0.050038844 0.050028816 0.050018817 0.04992963 0.049890656
0.049949706 0.050098535 0.050060619 0.05000674 0.049936775 0.049913697
0.050020393 0.050107498 0.050047569 0.050018478 0.04999087 0.049898352
0.049906082 0.050013959 0.049986511 0.050021205 0.049992807 0.050009646
0.050051529 0.049864862 0.050020244 0.049900323 0.049953189 0.050061572
0.04995016 0.049971499 0.049966134 0.05000335 0.050099 0.050030384
0.049944043 0.050114632 0.050105166 0.050050627 0.049989101 0.049940318
0.050020464 0.050070196 0.049988225 0.049989697 0.049913384 0.049927324
0.049945407 0.049964562 0.049968071 0.049976069 0.050068036 0.050063096
0.05000503 0.049921498 0.049975071 0.049964033 0.04997002 0.050094999
0.050029017 0.049903102 0.049951013 0.050107043 0.050051998 0.049860202
0.049930003 0.049997009 0.049967017 0.05003801 0.050011035 0.050011035
0.049960032 0.050051011 0.050016008 0.04998504 0.050055999 0.049961038
0.049901124 0.050101999 0.050083034 0.049975011 0.049972001 0.049929
0.04995301 0.049941044 0.050011039 0.04997801 0.050001062 0.049981099
0.050069004 0.050041009 0.049975004 0.050040029 0.050010078 0.050036017
0.049954098 0.050085999 0.050062098 0.049947124 0.050054163 0.050053034
0.050043102 0.049999177 0.050131153 0.050090417 0.050030138 0.049937714
0.0500069 0.049983248 0.049923938 0.049944129 0.049946625 0.050111141
0.049985658 0.050048843 0.050078291 0.050089981 0.050047308 0.049977452
0.050004799 0.05011313 0.050100315 0.050005905 0.050088942 0.050107751
0.050062671 0.049962081 0.049942084 0.049936824 0.049999624 0.04999011
0.049926326 0.049936216 0.049967851 0.050070513 0.050084352 0.049996469
0.049929246 0.049890123 0.049977988 0.050095759 0.050019674 0.050051428
0.049975757 0.049928352 0.050004128 0.049950086 0.049905621 0.050034489
0.050037619 0.049986951 0.050079361 0.049902994 0.049954873 0.049900766
0.049950179 0.050026476 0.049957547 0.049986653 0.049976818 0.049954791
0.050079297 0.050044432 0.05000937 0.050108038 0.050053168 0.050007604
0.049973045 0.050044466 0.049965601 0.050018109 0.050056331 0.04999727
0.049921423 0.049943473 0.049961474 0.049895555 0.049910177 0.049988344
0.050069209 0.050046198 0.050051115 0.049936306 0.049900122 0.049966052
0.049970325 0.050058059 0.05009101 0.049876198 0.049898069 0.050092027
0.050059017 0.049863022 0.049924027 0.050026048 0.049957044 0.049989998
0.050028007 0.050028007 0.049979001 0.050071064 0.050026 0.049982108
0.050043017 0.050030034 0.049878124 0.050056003 0.050053004 0.049944002
0.050016005 0.049947027 0.049915012 0.049925003 0.050019003 0.049990017
0.049966026 0.050031003 0.050097167 0.049996004 0.050026018 0.050082084
0.050001062 0.050028041 0.049943071 0.05009605 0.05011813 0.049984261
0.050028253 0.050017137 0.05006215 0.050026257 0.050157327 0.050085329
0.050064299 0.05005458 0.050058473 0.049982063 0.049953841 0.049920678
0.049962007 0.050083898 0.049975641 0.050111759 0.050107438 0.05007026
0.050064024 0.050024301 0.050097346 0.050127652 0.05010486 0.050038006
0.050065078 0.050083313 0.050022397 0.04998393 0.049941521 0.049891111
0.049942311 0.049980115 0.049947161 0.049958646 0.049997047 0.050035723
0.050071068 0.04998311 0.049890783 0.0498733 0.049959749 0.050057359
0.049976129 0.050039772 0.049973872 0.049955681 0.050048105 0.049927924
0.049884871 0.050019898 0.050069571 0.049961198 0.050055377 0.049984835
0.049968127 0.049952161 0.049892921 0.049952753 0.049985971 0.050025988
0.049997445 0.049898311 0.050031923 0.050043747 0.05006177 0.050044928
0.05002325 0.049992692 0.049963266 0.050122701 0.049909651 0.04999743
0.050057527 0.050000295 0.049974438 0.049939651 0.049956385 0.049874611
0.049926415 0.049993936 0.050024468 0.050026476 0.050039254 0.049922243
0.049879134 0.050036162 0.049980693 0.049952168 0.050099049 0.04993806
0.04987454 0.050051078 0.050054219 0.049871054 0.049952187 0.050021101
0.04989516 0.049941003 0.050040003 0.050040003 0.050030001 0.050062068
0.050037 0.05001713 0.050015073 0.050033018 0.049864024 0.050012015
0.050046023 0.049939029 0.050041009 0.049987026 0.049912009 0.04993704
0.05003408 0.050011106 0.049933136 0.050058026 0.05011424 0.049947061
0.05005008 0.050074112 0.049985051 0.050039068 0.049959123 0.050116215
0.050152153 0.049994264 0.050007198 0.050020218 0.050083399 0.050060466
0.050153546 0.050081361 0.05009662 0.050143518 0.050096307 0.050022893
0.050015263 0.049954765 0.049988456 0.050054427 0.049987473 0.050127432
0.050145298 0.050037067 0.050064955 0.050100107 0.050146762 0.050150651
0.050136566 0.050024394 0.050033867 0.050059766 0.050022528 0.049983241
0.049950294 0.049926564 0.049906325 0.049980834 0.049982116 0.04993289
0.049980462 0.049972843 0.050027695 0.049960576 0.049834024 0.04988569
0.049987461 0.050018191 0.049927637 0.050015334 0.049961325 0.049966093
0.050047528 0.049909968 0.049903173 0.049982194 0.050079681 0.049948201
0.050015602 0.050050825 0.049998067 0.050009999 0.049875643 0.049907379
0.049994342 0.050059404 0.05002268 0.04988189 0.04999274 0.050019491
0.050047282 0.049981926 0.050019756 0.050010789 0.049978968 0.050140105
0.049904872 0.04999635 0.050018784 0.049978882 0.050002534 0.049931049
0.0499525 0.049900059 0.049969912 0.050003506 0.049978923 0.04999103
0.049990501 0.049893461 0.049875338 0.05011237 0.049972754 0.049862247
0.050050259 0.050030015 0.049922913 0.050004229 0.050045427 0.049852103
0.049951218 0.050020058 0.049836192 0.049885001 0.05002502 0.05002502
0.050067004 0.050053019 0.050060008 0.050071068 0.049977053 0.049991999
0.049872 0.049959015 0.050074119 0.049959075 0.050019018 0.050010011
0.049926009 0.049980018 0.050056051 0.050020035 0.049914062 0.050074019
0.050125118 0.04992504 0.050056126 0.050059054 0.049981099 0.050064083
0.05000921 0.05011142 0.05013112 0.05000117 0.050010227 0.050079297
0.050130833 0.050064713 0.050131723 0.050100546 0.05010708 0.050166495
0.050130062 0.050093848 0.050078206 0.050025746 0.050045814 0.050075121
0.049991902 0.050090142 0.050178021 0.050031781 0.050080471 0.050168119
0.050155818 0.05018102 0.050170537 0.049989708 0.050019033 0.050062809
0.050059173 0.049973644 0.049962979 0.049973149 0.049886432 0.049975421
0.050025973 0.049918637 0.049921907 0.049885925 0.049963746 0.049910061
0.049797472 0.049921528 0.05001916 0.049968664 0.049872968 0.050002646
0.049941741 0.049982402 0.050033078 0.049876083 0.049920645 0.049940303
0.050071139 0.049947102 0.049996097 0.050070964 0.049991075 0.050036728
0.049939256 0.04992095 0.049987748 0.05007695 0.050053887 0.049910497
0.049984481 0.049987461 0.049984008 0.049957395 0.050009917 0.050024129
0.050020996 0.050109696 0.049940281 0.049989354 0.04998209 0.049955886
0.04999787 0.049933717 0.049957976 0.049951833 0.049991779 0.04999486
0.049959432 0.049949642 0.049936939 0.049881909 0.049859963 0.050125673
0.049946744 0.049836423 0.049990751 0.050079115 0.049986903 0.049958389
0.050004348 0.049814083 0.049923148 0.050015002 0.049830072 0.04984602
0.049985018 0.049985018 0.050073028 0.050053999 0.050078016 0.050110009
0.049947999 0.049960002 0.049895007 0.049900003 0.050102133 0.049994018
0.049993023 0.050002005 0.049927071 0.050032999 0.050051 0.05002303
0.049911 0.050094027 0.050136022 0.049949009 0.050067153 0.050053999
0.050004113 0.050084066 0.050073169 0.050082404 0.050075054 0.05003611
0.050047264 0.050162457 0.050177019 0.050045811 0.050118856 0.050143819
0.050087344 0.050141554 0.050163984 0.05016591 0.050142083 0.050099809
0.050133493 0.050132673 0.049995098 0.050060179 0.050208092 0.05006684
0.050104432 0.050195355 0.050142493 0.050200064 0.05018983 0.049993448
0.050044809 0.050074697 0.050082855 0.049974743 0.049985211 0.049962696
0.049855877 0.04996255 0.050058153 0.049933117 0.04986953 0.049816888
0.049885996 0.049841657 0.049787413 0.049951412 0.050004855 0.049897525
0.049819246 0.049990747 0.049930878 0.050006647 0.050005123 0.049859159
0.049937248 0.049914546 0.050053924 0.049940288 0.049994633 0.05005233
0.049954318 0.050040916 0.050042331 0.049976323 0.049994331 0.0500817
0.05007834 0.049948029 0.049990918 0.049974024 0.049926888 0.049971372
0.049988352 0.05001897 0.050058946 0.050054457 0.049976833 0.049973026
0.049966626 0.049947865 0.049982585 0.049947534 0.049968813 0.050008669
0.049977634 0.049957108 0.049956866 0.049919013 0.049891517 0.049895316
0.049840812 0.050075054 0.049918938 0.049862742 0.04995437 0.050060496
0.050007794 0.049897481 0.049935184 0.049792089 0.049880143 0.049984999
0.049855012 0.049843013 0.049943026 0.049943026 0.050053012 0.050062016
0.050084006 0.050115999 0.049936019 0.049954008 0.049919017 0.049865004
0.050095052 0.050026018 0.049995016 0.049972005 0.049910098 0.05007102
0.050003037 0.050027274 0.049915034 0.050119232 0.050146002 0.050009187
0.050087083 0.050044063 0.050051019 0.050088011 0.050127018 0.05005816
0.050033003 0.05009307 0.050114185 0.050242621 0.050197713 0.050042748
0.050130837 0.050179996 0.050052036 0.050115697 0.050194912 0.050238024
0.050202988 0.050158791 0.050227098 0.050196562 0.050033715 0.050090235
0.050234307 0.050117765 0.050125901 0.050176315 0.050135888 0.050209597
0.050194129 0.05005075 0.05010147 0.050073635 0.050064128 0.049995553
0.050022058 0.049899928 0.04981672 0.049940687 0.050057489 0.049942963
0.04984523 0.049786411 0.049806528 0.049785152 0.049782414 0.049956724
0.049942374 0.049816191 0.04979264 0.049962975 0.049927898 0.050015919
0.049964692 0.049891349 0.049973633 0.04990812 0.050036602 0.049915921
0.049998943 0.050035954 0.049926896 0.050043788 0.050116949 0.05004064
0.050027087 0.050080497 0.050085086 0.049968403 0.049986329 0.049986146
0.049922828 0.050003696 0.049967602 0.049994376 0.050072692 0.04999854
0.049994592 0.04996565 0.049969621 0.049950749 0.049969684 0.049959358
0.049976893 0.050039407 0.049937051 0.049911473 0.049952324 0.049904168
0.049858112 0.049916621 0.04982838 0.050005537 0.04989532 0.049902126
0.049941752 0.049996961 0.049977757 0.049819533 0.049875166 0.049800225
0.04982524 0.049932014 0.049869016 0.049865015 0.049896061 0.049896061
0.050021 0.050063062 0.050103001 0.050096005 0.049931034 0.049960006
0.049943026 0.049864005 0.050042015 0.050032143 0.050021034 0.049945064
0.049895082 0.050072093 0.049932167 0.050027531 0.049924172 0.050138451
0.050150115 0.050062519 0.050116006 0.050016329 0.050115053 0.050084028
0.050167058 0.050055999 0.050033022 0.050154015 0.05020605 0.050302546
0.050193243 0.050075561 0.050155535 0.050182838 0.050029438 0.050127815
0.050218765 0.05031212 0.050246704 0.050207611 0.050308783 0.050259043
0.050122358 0.050169695 0.050250839 0.05016008 0.050145239 0.050139789
0.050159238 0.050224066 0.050194748 0.050128244 0.050154354 0.050062634
0.050023034 0.050024372 0.05006272 0.049840577 0.049789216 0.049897045
0.050016105 0.049917966 0.049832731 0.049773347 0.049731195 0.049761392
0.049757879 0.049946509 0.049866397 0.049747128 0.049799059 0.049915377
0.049921941 0.04999024 0.049928311 0.04996885 0.050025642 0.049917813
0.050027903 0.049878828 0.049995229 0.050052702 0.049933836 0.050052099
0.050135083 0.050089072 0.050076965 0.050083179 0.050074283 0.049969722
0.049972162 0.050015539 0.049974944 0.050038267 0.049959812 0.049958203
0.050070673 0.049961146 0.049989909 0.049975667 0.049979161 0.049951755
0.049956139 0.049965229 0.049979229 0.050023157 0.04989136 0.049887266
0.04992903 0.049892537 0.04983367 0.049924076 0.049831577 0.049953304
0.049862728 0.049921636 0.049927801 0.049921278 0.049925774 0.049755633
0.049852356 0.049819537 0.049766418 0.049874164 0.04985407 0.049881071
0.049829062 0.049829062 0.049988028 0.050039131 0.050145004 0.050071009
0.049925044 0.04995802 0.049969066 0.049876001 0.049959041 0.050007269
0.050035179 0.049943294 0.049892135 0.050032306 0.049872506 0.050023686
0.049937546 0.050138593 0.050137632 0.050082881 0.050139505 0.049997777
0.050179448 0.050087299 0.050194364 0.050084148 0.05006513 0.050208014
0.050305009 0.050335184 0.050195005 0.050123248 0.050178126 0.050163399
0.050042078 0.050188754 0.050241552 0.050377101 0.050269146 0.050271396
0.050380439 0.050324585 0.050238937 0.050257422 0.050261211 0.050197937
0.050170701 0.05012114 0.050211694 0.050246 0.050202504 0.050194487
0.050174553 0.050059732 0.049997736 0.050034307 0.050084427 0.04982454
0.04979359 0.049829256 0.049942911 0.049857311 0.049805678 0.049750052
0.049670696 0.049764551 0.049713857 0.049923427 0.049809922 0.049707554
0.04982033 0.049854752 0.04991103 0.049943544 0.049915332 0.050053559
0.050067447 0.049940206 0.050034031 0.049855608 0.049985915 0.050098404
0.04996606 0.05006922 0.0501206 0.050113887 0.050125185 0.050102901
0.050055139 0.049958374 0.049975734 0.050047912 0.050054602 0.050070181
0.049962539 0.049925495 0.050068602 0.049944367 0.049966309 0.049986385
0.049983356 0.04994728 0.04993806 0.049965523 0.0499769 0.049970232
0.04986326 0.049884815 0.049887184 0.049870584 0.0498114 0.049910933
0.049852848 0.049919508 0.049818192 0.049915545 0.049891837 0.049855676
0.049871951 0.049730916 0.04985581 0.049818948 0.049718615 0.049817551
0.049821153 0.049863264 0.049734019 0.049734019 0.049965028 0.049992144
0.050187021 0.050047055 0.049917117 0.049945086 0.049991198 0.049880054
0.049880192 0.049957398 0.05001761 0.049961742 0.04989345 0.049962819
0.049850222 0.05001393 0.049951356 0.050112877 0.050108906 0.050079361
0.050146896 0.050023388 0.050226208 0.050106984 0.050216932 0.050136704
0.050113373 0.050245244 0.05038121 0.050343025 0.05022018 0.050163999
0.050201021 0.050158035 0.050104 0.050276455 0.050275318 0.050417874
0.050287556 0.050364222 0.050445911 0.050390229 0.050351147 0.050329607
0.050281871 0.050249703 0.050215695 0.050142743 0.050267097 0.050271358
0.050220195 0.050238255 0.050164536 0.050071787 0.050002173 0.050015319
0.050071064 0.049846228 0.049828 0.049760871 0.049861807 0.0497819
0.049755305 0.04970498 0.049627755 0.049775921 0.04966785 0.049880903
0.049779344 0.049703453 0.049818445 0.049792904 0.049902223 0.049906742
0.049927887 0.050105084 0.050082378 0.04997718 0.050061349 0.049869042
0.049984265 0.050149199 0.050004534 0.050095145 0.050115466 0.05013036
0.050160132 0.050145127 0.050042719 0.049943876 0.050017245 0.050078698
0.050124157 0.050100565 0.049979284 0.049910486 0.050070006 0.049946275
0.049939174 0.0499813 0.049979553 0.049935941 0.049913868 0.049956825
0.049965087 0.049909037 0.049863275 0.049886242 0.049836993 0.049832597
0.049778711 0.049880393 0.049882717 0.049893066 0.049774006 0.049889952
0.049830236 0.049805451 0.049819473 0.04973349 0.049858369 0.049787309
0.04968977 0.049757045 0.049778201 0.049801521 0.049625006 0.049625006
0.049952999 0.049937095 0.050192073 0.050010219 0.049908351 0.049923319
0.049993582 0.04987742 0.049833588 0.049894672 0.049970265 0.049974393
0.0498823 0.04989377 0.049859304 0.050000552 0.049954657 0.05006272
0.050076902 0.050078217 0.050146684 0.050083261 0.050243389 0.050133251
0.050240979 0.050203815 0.050170001 0.050260976 0.050410952 0.050344832
0.050262924 0.050204385 0.050231487 0.050204139 0.050203066 0.050366092
0.050326079 0.050435446 0.050321165 0.05047594 0.050502151 0.050447714
0.050445009 0.050394502 0.050331496 0.050321396 0.050290532 0.050207391
0.050302178 0.050304409 0.050248813 0.050263617 0.050148539 0.050093405
0.050022319 0.049986262 0.05002632 0.0498682 0.049875595 0.049719963
0.049792722 0.049713641 0.049694512 0.049644493 0.049599536 0.049775578
0.049635038 0.049813863 0.049763039 0.049724557 0.04977053 0.049739931
0.049899638 0.04990387 0.04995295 0.050108243 0.050076678 0.050030123
0.050109025 0.049927376 0.050007191 0.050188307 0.050041322 0.050130527
0.050140679 0.050158687 0.050183065 0.050194323 0.050044894 0.049937792
0.050092924 0.0501079 0.050160889 0.05013267 0.050013181 0.049919497
0.050067868 0.049957033 0.049929351 0.049962938 0.04997329 0.049918432
0.049883962 0.049930792 0.049936123 0.049866047 0.049882647 0.049873453
0.049787596 0.04978852 0.04973096 0.049839582 0.049905531 0.049861677
0.049738608 0.049845539 0.049757265 0.049769592 0.04976448 0.049720366
0.049831815 0.049729574 0.049676854 0.049687378 0.049724218 0.049707603
0.049522031 0.049522031 0.04994205 0.049895044 0.050140157 0.049944531
0.049887817 0.049890909 0.049967349 0.049880423 0.049828298 0.049842324
0.049907967 0.049956374 0.04985268 0.049844239 0.049880594 0.049978882
0.049936362 0.050003577 0.050059061 0.050095741 0.050149433 0.050141651
0.050231323 0.050155304 0.050265886 0.050271716 0.050227579 0.050258607
0.050405733 0.050354831 0.050311424 0.050253876 0.050279528 0.050300006
0.050321363 0.050443053 0.050396021 0.050452054 0.050384004 0.050577469
0.050551429 0.050498001 0.050527975 0.050471283 0.050420351 0.050406806
0.05039344 0.050307393 0.050321907 0.050356288 0.050284386 0.050274719
0.050151702 0.050114531 0.050040502 0.04997215 0.049968287 0.049860951
0.049913384 0.049716983 0.049748581 0.049663611 0.04963588 0.049582615
0.049572818 0.049745385 0.049615223 0.049730733 0.049750097 0.049753342
0.04968461 0.049712066 0.049902279 0.049934119 0.049970187 0.050077323
0.050075475 0.050092489 0.05016911 0.050019111 0.050060306 0.050219912
0.05008845 0.050176974 0.050189383 0.050209023 0.050202776 0.05023887
0.050070457 0.049956657 0.050178841 0.050135326 0.050166849 0.050163105
0.050062995 0.049949877 0.050062858 0.049973279 0.049946491 0.049950559
0.049968839 0.049892012 0.049848612 0.049886707 0.049887612 0.049843762
0.049894411 0.049836352 0.049743142 0.049746118 0.049675208 0.049795568
0.049898334 0.049825203 0.049709048 0.049782887 0.049688917 0.049734771
0.049708817 0.049665332 0.049769171 0.049654759 0.049662914 0.049613364
0.049654249 0.049600463 0.049435031 0.049435031 0.049915235 0.04987504
0.050034318 0.049850013 0.049839426 0.049842969 0.049918354 0.049888987
0.049847357 0.049814664 0.049847752 0.049903877 0.04980528 0.049814247
0.04989415 0.049944073 0.049896445 0.049951456 0.050063983 0.050126083
0.05015634 0.050166909 0.050197266 0.050173216 0.050290734 0.050325569
0.050272625 0.050250627 0.050391898 0.050383884 0.050363824 0.050315421
0.050346259 0.050411809 0.050447349 0.050509784 0.050477546 0.050497141
0.050474104 0.050657056 0.050604034 0.050551359 0.050607346 0.05056417
0.050547469 0.050502844 0.050512597 0.050428297 0.050351348 0.05043393
0.050323684 0.050277572 0.050186068 0.050135691 0.050049201 0.049980115
0.049921654 0.04982749 0.049925085 0.049729321 0.049728323 0.049629733
0.049588922 0.049528997 0.049529962 0.049676966 0.049592171 0.04965191
0.049736418 0.049771383 0.049593676 0.04971341 0.049910028 0.049977612
0.049977086 0.050048739 0.05009567 0.050157513 0.050236516 0.050125629
0.050131354 0.050255075 0.050159864 0.050235577 0.050247714 0.05027644
0.050228797 0.050277043 0.050122555 0.050011594 0.050250873 0.050160829
0.050161924 0.05018745 0.050120596 0.049999774 0.050058797 0.049991615
0.049984444 0.049957763 0.049965758 0.049854044 0.04981067 0.049833275
0.049830012 0.049828395 0.04987742 0.049780022 0.049701057 0.049702406
0.04961925 0.04974927 0.049845811 0.049783804 0.049674828 0.049706094
0.049626939 0.049687844 0.049654104 0.049572106 0.049676672 0.049564902
0.049630068 0.049540099 0.049573362 0.049494248 0.049362004 0.049362004
0.049853459 0.049865115 0.049890615 0.049746707 0.049762014 0.049787402
0.049864177 0.049885705 0.049860686 0.049808834 0.04980097 0.049833026
0.049754053 0.049785726 0.049894243 0.049900081 0.049848977 0.049921717
0.050080787 0.050141171 0.05016211 0.050154343 0.05015716 0.050193939
0.05031028 0.050351493 0.050295245 0.050247312 0.050395463 0.050437894
0.050419267 0.050386842 0.050416987 0.05051066 0.050574679 0.050580632
0.050562102 0.050582241 0.050583702 0.050731134 0.050674096 0.050622024
0.050687063 0.050664395 0.050701786 0.050619628 0.050630964 0.050558403
0.05041562 0.050531231 0.050369289 0.050290223 0.050249457 0.050168458
0.050060555 0.049995311 0.049896024 0.049793608 0.049906705 0.049728144
0.049720969 0.049598802 0.049548339 0.049482044 0.049462464 0.049575154
0.049549945 0.049596388 0.049720906 0.049771782 0.049534794 0.049742978
0.049921688 0.050015289 0.049983449 0.050050661 0.050138943 0.050223213
0.05031212 0.05023504 0.050202385 0.050300945 0.050260615 0.050314136
0.050314847 0.050344028 0.050269026 0.050321817 0.050198652 0.050095163
0.050299723 0.050186433 0.050166201 0.050202921 0.05017437 0.050067235
0.050068948 0.050011259 0.050023515 0.049979899 0.049960136 0.049814552
0.049777869 0.049785756 0.049775109 0.049805433 0.049825627 0.049718827
0.049659729 0.04964168 0.04955902 0.049696453 0.049748659 0.049728993
0.049628373 0.049624715 0.049562123 0.04961811 0.049590245 0.0494687
0.049569536 0.049463119 0.049565528 0.049468819 0.049488615 0.0493921
0.049294017 0.049294017 0.049750533 0.049840353 0.04973007 0.049651567
0.049669527 0.049734745 0.0498146 0.049850136 0.0498401 0.049797565
0.049770001 0.049762711 0.049708329 0.049744602 0.04987929 0.049855765
0.04981406 0.049915884 0.050092168 0.050119944 0.050152238 0.050126176
0.050124813 0.050224509 0.050316501 0.050338745 0.050292216 0.050251585
0.050421275 0.050509125 0.050481103 0.05046032 0.050486244 0.050585594
0.050694674 0.050663851 0.05064496 0.050696768 0.050714273 0.05082215
0.050775722 0.050724108 0.050765008 0.050762031 0.050867297 0.050761402
0.050741348 0.050689436 0.050525762 0.050633151 0.050426155 0.050330721
0.050336652 0.050228745 0.050088279 0.050000627 0.049892262 0.049777873
0.049864706 0.049697492 0.049711619 0.049554635 0.049503263 0.04943544
0.049375422 0.049461015 0.049484838 0.049569745 0.049702421 0.049756963
0.049533021 0.049787644 0.049935263 0.050036952 0.050002683 0.050087921
0.050201964 0.050298288 0.050400902 0.050346106 0.050274637 0.050362866
0.050379928 0.050414406 0.050395872 0.050405838 0.050326221 0.050383024
0.050289404 0.050190639 0.05032948 0.050221279 0.050190065 0.050214399
0.050221119 0.050145172 0.05009947 0.050030734 0.050042208 0.049993552
0.049943399 0.049782034 0.049753789 0.049746465 0.049725883 0.049772937
0.049753685 0.049667086 0.049616013 0.049551215 0.049481753 0.049632192
0.04963012 0.049649611 0.049570743 0.049552366 0.049490549 0.049528208
0.04949956 0.049377471 0.049458854 0.049357545 0.049465388 0.049389705
0.049397063 0.049283028 0.049224101 0.049224101 0.049617395 0.049772765
0.049573563 0.049572218 0.049580961 0.049692452 0.049768884 0.049773037
0.049778529 0.049752008 0.049745996 0.049699605 0.049666613 0.049686871
0.049847398 0.049825113 0.049805764 0.049921103 0.050080802 0.050059672
0.050117891 0.050104551 0.050110247 0.050257184 0.050307132 0.050295673
0.050275501 0.050260186 0.050462231 0.050581921 0.050550696 0.050530415
0.050558411 0.050652742 0.05080111 0.050760571 0.050723199 0.050818831
0.050865311 0.05094336 0.05091418 0.050866775 0.050848223 0.050862085
0.051028036 0.050925456 0.05085063 0.050823931 0.050677877 0.050726935
0.050504789 0.050412275 0.050439842 0.05032086 0.050140858 0.049995933
0.049906701 0.049777202 0.049811427 0.049643341 0.049683381 0.049490109
0.049446255 0.049387373 0.049280293 0.049353827 0.049407128 0.049561448
0.049670748 0.049736269 0.049589299 0.049839202 0.049945798 0.0500484
0.050046202 0.050140087 0.050281718 0.050394345 0.05050385 0.05046029
0.050363272 0.050445016 0.050505042 0.050535269 0.050495885 0.050466813
0.05039937 0.05046529 0.050385389 0.050282504 0.05035682 0.050270334
0.050235637 0.050230484 0.050258651 0.050218474 0.050144229 0.050053995
0.050037399 0.049980607 0.049912944 0.049765687 0.049736194 0.049706224
0.049680416 0.049740318 0.04968527 0.04963192 0.049564816 0.049437605
0.049385618 0.049554914 0.049517568 0.049539372 0.049493659 0.049494192
0.049413379 0.049422443 0.049373411 0.04929892 0.0493415 0.049253274
0.049335446 0.049299784 0.049282584 0.049162999 0.049147233 0.049147233
0.049469221 0.049649131 0.04944196 0.049503189 0.049503304 0.04965131
0.049718488 0.049663395 0.049686044 0.049656358 0.049707595 0.049634386
0.049620874 0.049622532 0.049799096 0.049808905 0.049822956 0.049916945
0.050040957 0.049977489 0.050058447 0.050095212 0.050110668 0.050274245
0.050279941 0.050242048 0.050258923 0.050274413 0.050504848 0.050645966
0.05062072 0.050596103 0.050643031 0.050730839 0.050894205 0.050862286
0.050799437 0.050935782 0.051029645 0.051091675 0.051085647 0.051046245
0.05095493 0.050975531 0.051177014 0.051101029 0.050974973 0.050978042
0.05086131 0.050814029 0.050615158 0.050536368 0.050554767 0.050435398
0.050213505 0.04999439 0.049940959 0.049772721 0.04975602 0.04957879
0.049618512 0.049408384 0.049378745 0.04933222 0.049186401 0.04926661
0.049331777 0.049541436 0.049611606 0.049718626 0.049685173 0.049897183
0.049952012 0.050065424 0.050111927 0.050185766 0.05037931 0.050516848
0.050623752 0.050580807 0.050491113 0.050550804 0.050622832 0.050672222
0.050618462 0.050546266 0.050484739 0.050559163 0.050477248 0.050363224
0.050392948 0.050327193 0.05030236 0.050263602 0.050289709 0.050266851
0.050189391 0.050078604 0.050013881 0.049938574 0.049873151 0.04975884
0.049717493 0.049655836 0.049633473 0.049716488 0.04963994 0.049601424
0.049494345 0.04932183 0.049282871 0.049470641 0.049430843 0.049400087
0.049384587 0.049436715 0.04933545 0.049311459 0.049217764 0.049220245
0.049204051 0.049142323 0.04917914 0.04919903 0.049131803 0.049038004
0.049065337 0.049065337 0.049320146 0.049483217 0.049349107 0.049434476
0.049424499 0.049586568 0.049649667 0.049539257 0.049585763 0.049519286
0.04963005 0.049560711 0.049558122 0.04956498 0.049736079 0.049801197
0.049848009 0.049890298 0.049972624 0.049892794 0.049980566 0.050084054
0.050118711 0.050260812 0.050244275 0.050197266 0.050254412 0.050301578
0.050538365 0.050690483 0.050683327 0.050660864 0.050744053 0.050826788
0.050981522 0.05095841 0.050880402 0.051045708 0.051190764 0.051252112
0.051269431 0.05125026 0.051098116 0.051129065 0.051315092 0.051281027
0.051125694 0.05116675 0.05107158 0.050913021 0.050766319 0.050697811
0.050679717 0.050548282 0.050299224 0.05001305 0.049994111 0.049747121
0.04970666 0.049511004 0.049511522 0.049318973 0.049306028 0.049263194
0.049087621 0.049195964 0.049268238 0.049482111 0.04951977 0.049702808
0.04979717 0.049969114 0.04996413 0.050105698 0.050194897 0.050223503