# vtk DataFile Version 3.0
axinsert(project(permute(???,2,0,1),0,L2),2)
ASCII
DATASET STRUCTURED_POINTS
DIMENSIONS 128 256 1
ORIGIN 0 0 0
SPACING 1 1 1
POINT_DATA 32768
SCALARS nrrd12421 float
LOOKUP_TABLE default
0.050034206 0.050011002 0.050014287 0.050025139 0.050021999 0.049953133
0.049965199 0.049973 0.049982019 0.050018013 0.050059017 0.050028145
0.04994506 0.049892087 0.049980126 0.050064322 0.050039023 0.050036006
0.050041113 0.049941212 0.049979176 0.050009176 0.050018113 0.050037671
0.049947008 0.050012998 0.050039034 0.050027668 0.049985439 0.049967039
0.050001319 0.049996011 0.049978636 0.050020128 0.050013389 0.049926061
0.049977221 0.050020013 0.050023038 0.050022025 0.050000127 0.050002273
0.049998321 0.049992263 0.049970001 0.049998164 0.050043005 0.0499871
0.04999309 0.050015092 0.049982157 0.049967039 0.050057024 0.050031625
0.049965046 0.049984343 0.050019007 0.050032675 0.049987387 0.049999136
0.050008137 0.049946655 0.049957179 0.050033055 0.050000127 0.049996
0.050004087 0.04999201 0.0500471 0.050014168 0.049983025 0.049996138
0.049962014 0.049979012 0.049996089 0.050028045 0.049975052 0.050014023
0.050034001 0.04999103 0.049948018 0.050016131 0.049998023 0.050011043
0.050040051 0.050007105 0.050007015 0.050011221 0.049996026 0.050013456
0.050032075 0.050040554 0.04998209 0.049969643 0.049988095 0.050015103
0.050006595 0.050013103 0.050016895 0.049925152 0.049991999 0.050005242
0.049994025 0.049988102 0.050009001 0.050032444 0.050018013 0.050008707
0.049952015 0.050013144 0.050048999 0.049963068 0.049999092 0.050024305
0.049926016 0.049979154 0.049988098 0.050022002 0.049973 0.049982134
0.049984001 0.049988452 0.050005026 0.050030317 0.050048042 0.050003104
0.050008066 0.050008066 0.050130006 0.050083101 0.050068028 0.050103374
0.049982134 0.049877085 0.049876072 0.049926016 0.049976025 0.050033011
0.050071005 0.050065011 0.049953006 0.049836241 0.049956184 0.050050158
0.050073024 0.050032064 0.050079081 0.049945053 0.049945053 0.050042018
0.050117217 0.050006177 0.049901057 0.050024301 0.05007913 0.05013907
0.049933799 0.04990809 0.050001319 0.05004115 0.049972709 0.049955145
0.050020255 0.04989624 0.049950734 0.050077148 0.050071307 0.05001029
0.050072771 0.050087251 0.049953111 0.049948987 0.04991572 0.049948476
0.05008924 0.050037753 0.050025675 0.050011296 0.049939722 0.049988333
0.050115485 0.050029226 0.049931969 0.050010584 0.050099462 0.050024908
0.049928118 0.049953539 0.04998643 0.049876891 0.049948629 0.050110046
0.049978063 0.049990911 0.049973268 0.049970221 0.050071169 0.050033033
0.049971379 0.049928032 0.049961977 0.049944058 0.050052274 0.05010321
0.049946595 0.049962319 0.050016113 0.049998019 0.049998153 0.04995741
0.049981467 0.050034687 0.050112307 0.050017729 0.050039675 0.050045904
0.049970075 0.050062492 0.050000049 0.049984168 0.050032385 0.049946733
0.049952231 0.050112441 0.050008833 0.050027605 0.050009694 0.049832396
0.049996696 0.050045464 0.0499769 0.049957283 0.050072856 0.050026432
0.049971562 0.049931161 0.049920056 0.049993441 0.050145041 0.050021712
0.049981099 0.050002169 0.049899075 0.049950328 0.04994018 0.050041113
0.049904134 0.049940001 0.049987014 0.050008018 0.05000614 0.050000001
0.050083004 0.050035071 0.05000608 0.05000608 0.050133012 0.050101016
0.05011601 0.050087128 0.049944036 0.049924109 0.049903009 0.049916293
0.049952999 0.050034113 0.050006025 0.04999204 0.050059047 0.050011326
0.049948309 0.049996201 0.050057452 0.049948186 0.050004154 0.050067998
0.049981546 0.050039105 0.050109517 0.049967024 0.049999546 0.050023329
0.050066773 0.05018336 0.049947996 0.049892556 0.050005864 0.050064728
0.049980015 0.049892556 0.050017782 0.050028712 0.049972903 0.050094165
0.050080977 0.04998859 0.050136063 0.050076425 0.049920924 0.049933657
0.049989015 0.049937066 0.05006038 0.050089836 0.050046787 0.050001148
0.049930125 0.050063211 0.050085001 0.04998216 0.049977571 0.050041743
0.050071839 0.050019763 0.049908083 0.049920306 0.049968082 0.049920354
0.049988709 0.050079376 0.049992852 0.049997613 0.049935028 0.049971107
0.049960084 0.050028868 0.050006654 0.049929239 0.049973287 0.049984135
0.050100114 0.050073344 0.049997982 0.049949203 0.049908139 0.050003275
0.050024252 0.049927853 0.050062042 0.050014704 0.050066486 0.050045703
0.0500619 0.050056782 0.049962834 0.05004273 0.049904145 0.049917117
0.050110072 0.049969561 0.049943499 0.050121322 0.050018109 0.050000243
0.049975056 0.049893077 0.050019599 0.050067324 0.049927402 0.049956653
0.050065283 0.050000392 0.04995596 0.049875859 0.049978703 0.049917284
0.050086237 0.050113421 0.049916241 0.049989097 0.049985163 0.049946286
0.049956217 0.049973343 0.049919073 0.049927626 0.049943026 0.050052144
0.049971029 0.049927041 0.050005008 0.050070014 0.050023001 0.050023001
0.050108012 0.050083999 0.050144043 0.050059002 0.049976051 0.049972136
0.049947005 0.049920265 0.049910005 0.050073195 0.050011043 0.049948171
0.050094031 0.050093234 0.049922217 0.050059237 0.050057672 0.049922135
0.049941614 0.050069008 0.050058436 0.050044335 0.05006871 0.049990173
0.050056867 0.050041288 0.050078228 0.050162315 0.050001971 0.049882852
0.050036188 0.050075188 0.049949594 0.049934033 0.050042197 0.050076611
0.050006554 0.050082281 0.05011525 0.050033838 0.050156236 0.049966712
0.049958546 0.049989492 0.050018672 0.04999293 0.050086003 0.050091214
0.049999226 0.050035432 0.049963437 0.050068982 0.05009732 0.04998349
0.049991611 0.050050002 0.050023884 0.050031457 0.049896862 0.049954075
0.049982041 0.049947049 0.049993094 0.050018195 0.050028548 0.049996272
0.049925093 0.049968958 0.049911339 0.05000633 0.050019447 0.049980823
0.04996857 0.050026339 0.050073713 0.049998082 0.050056919 0.049988981
0.049875196 0.049946874 0.049945641 0.049962185 0.050174855 0.049989287
0.049993124 0.050082523 0.050050583 0.050037723 0.049953073 0.049975622
0.049910888 0.04997725 0.050086536 0.049988553 0.049939197 0.050059225
0.050024133 0.050015159 0.049996559 0.049922772 0.050028227 0.050014623
0.04986177 0.04995878 0.050002664 0.049989905 0.050037224 0.049911145
0.0499877 0.049889069 0.049986631 0.050043847 0.049857508 0.049956549
0.050002102 0.049958542 0.049969237 0.04994927 0.04997021 0.049901582
0.049878109 0.050036222 0.049933001 0.049904086 0.049972005 0.050068043
0.050042041 0.050042041 0.050108004 0.050071001 0.050134003 0.05006703
0.050053999 0.050009083 0.049956035 0.049916081 0.049927052 0.050080251
0.050004032 0.049978208 0.050086219 0.050094113 0.049947131 0.050109327
0.050025273 0.049940147 0.049917489 0.050032169 0.050135352 0.050096609
0.050053749 0.049998559 0.050043937 0.050072398 0.05008642 0.050132427
0.05006608 0.049920052 0.050060939 0.050114214 0.049957655 0.049970839
0.05008512 0.050076567 0.050039787 0.050074406 0.050127886 0.05009979
0.050193734 0.049904741 0.05004948 0.050064284 0.050014477 0.050046597
0.050106365 0.050096314 0.049950145 0.050071076 0.050060339 0.050049998
0.050074693 0.050006937 0.050021078 0.05005832 0.050041933 0.050025217
0.049882725 0.050008979 0.049969885 0.049926888 0.050006099 0.049985256
0.050013371 0.04996527 0.049930319 0.049984802 0.049918529 0.049977999
0.04996996 0.050010942 0.050013777 0.050063115 0.04999603 0.049960919
0.050076317 0.049978998 0.049890622 0.049904503 0.049942721 0.049976293
0.05020735 0.049974371 0.049927589 0.050094891 0.049992412 0.050016586
0.049952876 0.049928799 0.049963329 0.050005272 0.050042503 0.050033484
0.049919471 0.050011162 0.050018635 0.050042745 0.050046731 0.049952425
0.050008707 0.049922705 0.049833883 0.049952429 0.049931377 0.049963027
0.050105784 0.049957898 0.049959239 0.049915317 0.049918793 0.049940407
0.049854081 0.049871683 0.049982261 0.04999024 0.049903501 0.049952529
0.050005421 0.04987653 0.049848311 0.049950302 0.049907003 0.049924187
0.049979005 0.050024197 0.050020054 0.050020054 0.05012105 0.050057001
0.050095022 0.050070051 0.050125018 0.050028007 0.049956031 0.049927007
0.049984161 0.050052196 0.049999058 0.050034195 0.05005924 0.050057095
0.049997058 0.050114334 0.049993049 0.049982235 0.049945198 0.05004061
0.050175339 0.050133754 0.050054513 0.050023794 0.050018933 0.050113659
0.050090581 0.050110724 0.050122336 0.049991407 0.05006367 0.050148524
0.050023038 0.049990226 0.050107665 0.050062727 0.05007321 0.050101738
0.050136834 0.050120145 0.050217777 0.049946602 0.050129917 0.050131414
0.050046094 0.050103143 0.050087631 0.050121281 0.049945679 0.050092597
0.050155751 0.050032314 0.05005642 0.050054248 0.05008062 0.050047539
0.050077695 0.05002825 0.049887817 0.050027803 0.049925499 0.049869671
0.050014023 0.049985193 0.04998422 0.049934294 0.049916282 0.049978886
0.049932268 0.049971946 0.049907662 0.050026082 0.05004999 0.050045237
0.049928349 0.049964666 0.050063435 0.049950998 0.049903762 0.049901396
0.049988944 0.049957037 0.050170716 0.049945407 0.049890548 0.050078921
0.049942877 0.050005026 0.049969412 0.049936395 0.050018761 0.049998838
0.050028622 0.050076485 0.049915489 0.049999055 0.049993288 0.050028175
0.050054431 0.050000627 0.049978584 0.049862761 0.049842529 0.049913935
0.049863458 0.049936473 0.05011775 0.049969982 0.049926598 0.049951553
0.049876098 0.049853031 0.049891651 0.049792558 0.049946833 0.050016761
0.049850039 0.049929295 0.049974538 0.049868587 0.049824581 0.049842421
0.049894016 0.049938273 0.049979012 0.049978163 0.049974013 0.049974013
0.050114062 0.050046001 0.050062057 0.050057013 0.050155025 0.050016999
0.049962003 0.049984999 0.050046258 0.050025113 0.050007157 0.050052151
0.050043147 0.050016098 0.050033033 0.05010023 0.049995013 0.050013315
0.050008081 0.050079953 0.050165288 0.050138664 0.050060324 0.050077766
0.050016858 0.05016686 0.050097581 0.050100096 0.050172508 0.050071742
0.050072856 0.050156239 0.050120845 0.050040659 0.050115321 0.050051194
0.050108254 0.050139416 0.050148945 0.05010581 0.050216578 0.050058585
0.050172251 0.050183438 0.050119158 0.050172187 0.050071184 0.050142333
0.049977813 0.050124273 0.050209511 0.050033871 0.050085157 0.050107643
0.050136369 0.050024472 0.050081111 0.050031401 0.049912702 0.050006479
0.049876191 0.04982451 0.049992766 0.049995691 0.049984075 0.049916692
0.049877446 0.049929552 0.049933914 0.049991947 0.049881954 0.050028462
0.05002968 0.049976859 0.049899947 0.049975503 0.050029796 0.049948029
0.049910929 0.049924634 0.050033521 0.049915005 0.050106887 0.04990482
0.049893577 0.050060268 0.049924847 0.049993142 0.049974345 0.049963012
0.050058756 0.049997903 0.050022896 0.050100606 0.049953312 0.050006136
0.049965356 0.049986172 0.050012417 0.050037347 0.049952921 0.049846765
0.049851857 0.049866699 0.049818739 0.049906839 0.050062668 0.0499449
0.04991591 0.049969885 0.049854934 0.04979679 0.049909029 0.049750574
0.049906708 0.050018705 0.049845457 0.049863845 0.049885564 0.04988461
0.04981273 0.049748603 0.049872138 0.049917318 0.049946036 0.049948059
0.049929999 0.049929999 0.050083011 0.050057005 0.050055046 0.050044008
0.050149016 0.050000001 0.049963009 0.050064001 0.050094239 0.05001305
0.050022185 0.050028116 0.050035074 0.049992073 0.050053038 0.050086137
0.050025024 0.050032277 0.050080113 0.050115839 0.050130267 0.050138522
0.050077356 0.050135698 0.050035842 0.050218929 0.050123442 0.050103493
0.050207596 0.050140914 0.050111625 0.050157938 0.050220776 0.050125286
0.05013679 0.050067488 0.050150882 0.050162129 0.050156411 0.050100487
0.05020263 0.050178073 0.050188344 0.050225589 0.050200298 0.050241459
0.050098952 0.050154556 0.050037738 0.050177284 0.050230332 0.050062988
0.050141111 0.050148509 0.050159633 0.05000468 0.05004875 0.050010141
0.049936906 0.049969673 0.049849164 0.049814705 0.049951077 0.04999638
0.049995519 0.049905334 0.04983478 0.049860172 0.049915727 0.050014857
0.049891189 0.05001612 0.049971331 0.049909718 0.049908262 0.049966373
0.049973242 0.049968142 0.049931776 0.04994642 0.050056949 0.049879108
0.050042018 0.049875103 0.049916405 0.050040606 0.049933393 0.049981069
0.049962129 0.049969617 0.05007378 0.050008558 0.050016139 0.05010432
0.050001826 0.050005525 0.049943566 0.049966674 0.049952663 0.050032508
0.049941998 0.049858339 0.049843468 0.049834948 0.049807724 0.049858853
0.049960192 0.049905211 0.049921229 0.04996122 0.049857691 0.049767427
0.049871176 0.049748231 0.049864497 0.049978446 0.049868442 0.049784761
0.049791649 0.049902648 0.04982271 0.049687792 0.049830321 0.049877349
0.049884122 0.049913019 0.049899004 0.049899004 0.050054003 0.050087016
0.050069015 0.050038062 0.050131015 0.050006017 0.049952053 0.050113004
0.050119139 0.05000703 0.050042104 0.050001107 0.050024059 0.049987059
0.05007007 0.050076127 0.050051074 0.050061177 0.050144292 0.050128549
0.050113332 0.050156504 0.050101575 0.050174695 0.050058942 0.050256968
0.050177369 0.050121889 0.050221734 0.05018799 0.050172422 0.050176308
0.05030103 0.050209023 0.050189894 0.050130002 0.050207555 0.050177164
0.050170507 0.050121058 0.050199766 0.05026431 0.050202474 0.050277114
0.050267927 0.050288849 0.05016559 0.050184365 0.050128806 0.050241787
0.05024004 0.050109453 0.050185315 0.050169919 0.050147865 0.049996722
0.050002653 0.049964104 0.049939904 0.049939338 0.049846459 0.049824379
0.049913775 0.049976211 0.049989529 0.04988702 0.04979413 0.049800776
0.049885701 0.050011225 0.049896579 0.049991682 0.049914278 0.049880654
0.049934659 0.04993166 0.049907897 0.049986392 0.049968969 0.049949121
0.050057497 0.049879011 0.049997222 0.049876768 0.049925856 0.050006639
0.049952205 0.049981326 0.049955573 0.049944256 0.050061345 0.050018255
0.050015498 0.050081126 0.050020237 0.049988106 0.049924701 0.049988504
0.04989576 0.049992643 0.049942281 0.049875531 0.049829602 0.049819328
0.049814139 0.049801476 0.04986161 0.049870223 0.049914777 0.049926691
0.049866743 0.049748693 0.049797285 0.049777109 0.049823068 0.049894415
0.049886301 0.04973447 0.049723007 0.049895767 0.049838737 0.049659841
0.049783505 0.049843404 0.049805287 0.049851011 0.049874008 0.049874008
0.050052006 0.050115041 0.050089002 0.050046116 0.050111022 0.050036039
0.049938101 0.050113022 0.050126038 0.05000104 0.050068028 0.050004128
0.050010074 0.049996082 0.050095152 0.050078198 0.050055213 0.050105158
0.050193604 0.050116397 0.050130475 0.050189611 0.050121814 0.050197765
0.050085098 0.050283153 0.050246399 0.050151147 0.050218917 0.050218116
0.05023855 0.050217502 0.05035555 0.050271545 0.050266042 0.050234742
0.050276678 0.050213274 0.050209813 0.050164368 0.050224282 0.050311986
0.050229162 0.050338328 0.050326895 0.050312266 0.050239764 0.050247069
0.050237998 0.050302971 0.050258569 0.05014845 0.050198358 0.050172336
0.050126292 0.050002165 0.049970586 0.049923677 0.049920391 0.049920607
0.049860232 0.049831424 0.04988287 0.049926002 0.049952615 0.049854048
0.049749132 0.04976631 0.049859818 0.049969044 0.049868986 0.049958963
0.049876377 0.04988252 0.049958624 0.049885038 0.049858663 0.049982615
0.050007839 0.04993603 0.050041135 0.049922254 0.049979135 0.04991094
0.049914859 0.049959619 0.049972925 0.05000028 0.049965937 0.049905993
0.050030563 0.050015442 0.050017118 0.050031994 0.050005097 0.049966995
0.049915619 0.050025795 0.04985062 0.049944542 0.049936 0.049878974
0.049829748 0.049808133 0.049816296 0.049759042 0.049804438 0.049847886
0.049877729 0.049873557 0.049855247 0.049722791 0.049725637 0.049822409
0.049785521 0.049783714 0.049877416 0.049734268 0.049691733 0.049855009
0.049836963 0.049638782 0.049745686 0.049817417 0.049719438 0.049765013
0.04984501 0.04984501 0.050080005 0.050129056 0.050108001 0.050075125
0.050086044 0.050060034 0.049932081 0.05007904 0.050129 0.050005078
0.050088007 0.050034139 0.050002076 0.050021127 0.050124239 0.050093267
0.050043378 0.050153196 0.050228804 0.05009339 0.050166663 0.0502197
0.050134927 0.050217848 0.050123245 0.050301503 0.050301433 0.050185151
0.050218079 0.05025335 0.050305061 0.050265789 0.050388154 0.050319422
0.050339587 0.050347198 0.050353944 0.050280824 0.050282408 0.050232224
0.05028227 0.05034652 0.050265402 0.050392423 0.050388779 0.050327919
0.050306924 0.050335489 0.050334379 0.050357316 0.050294083 0.050168797
0.050192215 0.050171267 0.050119262 0.050010227 0.049963653 0.049908217
0.049884696 0.049909316 0.049881533 0.04982356 0.049842067 0.049845975
0.0498881 0.049800117 0.049693305 0.049753916 0.049843859 0.049898833
0.049810749 0.049921528 0.049849946 0.049892329 0.04996226 0.049839877
0.049840573 0.049954548 0.050030056 0.049920034 0.050017543 0.049981095
0.04998054 0.049959183 0.049910504 0.049922921 0.049987417 0.050029449
0.049992602 0.049881794 0.049997091 0.049996324 0.049999971 0.049972948
0.049976904 0.049955633 0.049921677 0.050042912 0.049827561 0.049906485
0.049909152 0.049863253 0.049838301 0.049796406 0.0498068 0.049748998
0.049791936 0.049826629 0.049823027 0.049811844 0.049808215 0.049690161
0.04967447 0.049858067 0.049746864 0.049678251 0.049832996 0.049767289
0.049690567 0.049788337 0.049804267 0.049606707 0.049712777 0.049789343
0.049641453 0.049675029 0.049801026 0.049801026 0.050115004 0.050130032
0.050126005 0.050118081 0.050057046 0.050061014 0.049941026 0.050029043
0.05014402 0.0500261 0.050094999 0.050067116 0.050006032 0.050063137
0.05014924 0.050113209 0.050034385 0.050192185 0.050255708 0.050084345
0.050202798 0.05023361 0.050150901 0.050244872 0.050181277 0.050311822
0.050322339 0.050225936 0.050240122 0.050315656 0.050370757 0.050307136
0.050408684 0.050371729 0.050391365 0.050430819 0.050430577 0.0503764
0.050379902 0.050325554 0.050371908 0.0503955 0.050309364 0.050430078
0.050458413 0.050356232 0.050368994 0.050424729 0.050399125 0.050408978
0.050340783 0.050180186 0.050194316 0.050177932 0.050131895 0.050017796
0.049976472 0.049908828 0.04984457 0.049899455 0.049902897 0.049800374
0.049781699 0.049749468 0.049798872 0.049724933 0.049637921 0.049752731
0.049826611 0.049811918 0.049737662 0.049882196 0.049824666 0.049898025
0.049940661 0.049805645 0.049847651 0.049914166 0.050031021 0.049909815
0.049999651 0.05002217 0.049980689 0.050002027 0.049944218 0.049920455
0.04999781 0.050057005 0.05002366 0.049887463 0.049973313 0.049968533
0.049960032 0.049931452 0.049949758 0.04995212 0.049939517 0.050021704
0.049827855 0.049878065 0.049868647 0.049836438 0.049838495 0.049784064
0.049794026 0.049768552 0.049789872 0.04979495 0.049771432 0.049748261
0.049738523 0.049659979 0.049638808 0.049858958 0.049703162 0.049609907
0.049767006 0.049791612 0.049701042 0.049704682 0.049738374 0.049560696
0.049667783 0.049749233 0.049588334 0.049603049 0.049741045 0.049741045
0.050136007 0.050128005 0.050143003 0.05015903 0.050031014 0.050046001
0.049961999 0.049981039 0.05016404 0.050061062 0.050094999 0.050081067
0.050014004 0.050116081 0.050153129 0.050130047 0.050038211 0.050222069
0.05028142 0.050103169 0.050234776 0.050234355 0.050183747 0.050274763
0.050254084 0.050311796 0.050313085 0.050279617 0.05029403 0.050405957
0.050434098 0.050337356 0.050432954 0.050433196 0.050415799 0.05047575
0.050504982 0.050489236 0.050485581 0.050435506 0.050487027 0.050472595
0.050365094 0.050467536 0.050533973 0.050411075 0.050429411 0.050490789
0.050439011 0.05045845 0.050388552 0.050208956 0.050223041 0.050192822
0.050148915 0.05003047 0.049998116 0.049894925 0.049801581 0.049880169
0.049909681 0.049771551 0.049707998 0.049653169 0.049692404 0.049637489
0.049589843 0.049747396 0.049784828 0.0497129 0.049668416 0.049840689
0.049801078 0.049894534 0.049899507 0.04979267 0.049868681 0.049881801
0.050017517 0.049901057 0.049991995 0.050032876 0.049969152 0.050032463
0.050014131 0.049956877 0.0500113 0.050072856 0.050049715 0.049912907
0.049962942 0.049947429 0.049916312 0.049919836 0.049926233 0.049944542
0.049957395 0.049969982 0.049843561 0.049855568 0.049832575 0.049810115
0.049822442 0.049774002 0.049784083 0.049796473 0.049767762 0.049747892
0.049732752 0.049692407 0.049666937 0.049640063 0.049603418 0.049813963
0.04965556 0.049583666 0.049700171 0.049772296 0.049697068 0.049610954
0.049655303 0.049515795 0.04960179 0.049692176 0.04955722 0.049560063
0.049667068 0.049667068 0.050130002 0.050131008 0.050161004 0.050179005
0.050014999 0.050032999 0.049991004 0.049953029 0.050166026 0.050094005
0.050101001 0.050072014 0.050018005 0.050159015 0.05012602 0.050145011
0.050050046 0.050252002 0.050301138 0.05015301 0.050265498 0.050226096
0.050238442 0.050299507 0.050327655 0.050311312 0.05029973 0.05034826
0.050380744 0.05050905 0.0504857 0.050371207 0.050468758 0.050495408
0.0504243 0.050503887 0.050575379 0.050608274 0.050587896 0.050548211
0.05061619 0.050573722 0.050448421 0.050528772 0.050609261 0.050489441
0.050491199 0.050528549 0.050478414 0.050508119 0.050434988 0.050271839
0.050278075 0.050207287 0.050155833 0.050053 0.050020669 0.049853425
0.049755465 0.049840465 0.049886588 0.049734071 0.049636882 0.049567867
0.049575951 0.049550775 0.04954366 0.049722269 0.049707338 0.04961022
0.049616955 0.049789924 0.04977601 0.049877748 0.049853675 0.049814038
0.049900286 0.049865633 0.050000947 0.049887005 0.049994092 0.050034173
0.04995833 0.05005303 0.050090067 0.050017048 0.050039046 0.050080795
0.050064351 0.04993809 0.049958382 0.049946871 0.049900863 0.049934115
0.049902756 0.049924877 0.049964026 0.04990783 0.049854878 0.0498388
0.049811143 0.049788795 0.049795143 0.049767133 0.049775738 0.049804397
0.049718261 0.049692925 0.04969902 0.049646322 0.049605329 0.049628194
0.049567811 0.049737148 0.049602151 0.049584553 0.049642064 0.049705189
0.049658924 0.049516145 0.049576294 0.049483053 0.049517896 0.049618237
0.04953419 0.049537096 0.049580082 0.049580082 0.050105002 0.050130047
0.050185002 0.050177999 0.05000801 0.050030004 0.050023016 0.049945019
0.050133012 0.050111029 0.050115008 0.050059006 0.050017018 0.050175007
0.050077021 0.050155155 0.050066013 0.050280076 0.050308999 0.050215054
0.050295107 0.050221 0.050309103 0.050320186 0.050391212 0.050324623
0.050306395 0.050426856 0.050490249 0.050600681 0.050524626 0.050420605
0.050514929 0.05054196 0.050439984 0.050547957 0.050642788 0.050725307
0.05067686 0.050658751 0.050748073 0.050691061 0.050568819 0.050624214
0.050680671 0.050580051 0.05055555 0.05055394 0.050536726 0.050559372
0.050481744 0.05036357 0.050338533 0.050219204 0.05014845 0.050079275
0.050038025 0.049800269 0.049713925 0.049774759 0.049825739 0.049675953
0.049569082 0.04949259 0.049460337 0.04947776 0.049484774 0.049673233
0.049605966 0.049516652 0.049584255 0.049724042 0.049749598 0.049841758
0.049816623 0.049867649 0.049938228 0.049871441 0.049990814 0.049869418
0.050001066 0.050048798 0.049963314 0.050072554 0.050140239 0.05007932
0.050082155 0.050089765 0.050063945 0.049950346 0.049959324 0.049968589
0.04992988 0.049961016 0.049883254 0.049893044 0.049957901 0.049853455
0.049848203 0.049827307 0.049801603 0.049769502 0.049763493 0.04975849
0.04976283 0.049777299 0.049657669 0.04964466 0.049656615 0.049603429
0.049553748 0.049613401 0.049540844 0.049653675 0.049543999 0.04958272
0.049587537 0.049609117 0.049590938 0.049432419 0.049515575 0.04945853
0.049430136 0.049534503 0.049499247 0.049515191 0.049477078 0.049477078
0.050075009 0.050112106 0.050220005 0.050161012 0.050006039 0.050031014
0.050054044 0.049952 0.050071023 0.050101142 0.050127089 0.050058126
0.05001507 0.050154127 0.050029237 0.05015837 0.050088219 0.05029124
0.050308205 0.050260309 0.050324053 0.050229151 0.050382011 0.050340999
0.050443005 0.05036011 0.050344132 0.050503422 0.050604638 0.050670739
0.050560351 0.050487537 0.050567593 0.050576799 0.050483461 0.050628614
0.050712045 0.050832041 0.050754443 0.05077615 0.05087487 0.050813992
0.050720599 0.050745379 0.050752562 0.050678801 0.050628144 0.050590213
0.050620083 0.050617386 0.050536137 0.050461411 0.050388038 0.050233159
0.050139807 0.050094705 0.050042961 0.049762413 0.049684681 0.049684063
0.049727786 0.049588446 0.049494714 0.049411796 0.049352191 0.049418487
0.049404144 0.049600873 0.049503803 0.049441829 0.049556211 0.049645968
0.04972114 0.049793608 0.049799088 0.049935292 0.049972605 0.049896818
0.049998179 0.049861796 0.0500114 0.050089486 0.049992856 0.05009938
0.050163373 0.05012925 0.050134908 0.05011104 0.050054602 0.049951281
0.049973581 0.050005622 0.04999071 0.049989387 0.049873237 0.049860097
0.049946997 0.049818095 0.049825132 0.049817983 0.04979321 0.049748931
0.049729649 0.049742535 0.049738284 0.049718607 0.049607776 0.049607474
0.049599875 0.049557388 0.049504478 0.049585067 0.049526855 0.049578685
0.049480163 0.049561307 0.049523894 0.049510092 0.049507316 0.049371932
0.049475212 0.049427148 0.049349464 0.049444027 0.049444363 0.049470384
0.049356036 0.049356036 0.05005002 0.050076127 0.050252017 0.050134052
0.050003111 0.050027069 0.050076161 0.049965035 0.050001103 0.050063308
0.050121367 0.050070465 0.050015286 0.050105497 0.050002769 0.050157651
0.05010879 0.050278541 0.050296023 0.050281752 0.050349776 0.050258577
0.05044537 0.050368201 0.050485171 0.050422043 0.050409 0.050565064
0.050703127 0.050715588 0.050606377 0.050562225 0.05062421 0.050620247
0.050567176 0.05074165 0.050787006 0.050923213 0.050829671 0.050910342
0.050994355 0.050938662 0.050886706 0.0508761 0.050835934 0.050788797
0.050724424 0.050659567 0.05071833 0.050687637 0.05060105 0.050547794
0.050421007 0.050259814 0.050142135 0.050091684 0.050028566 0.049750295
0.049669921 0.049584296 0.049607765 0.049476076 0.049398702 0.04931343
0.049253602 0.049362291 0.049307097 0.049504921 0.0494163 0.049390722
0.049511757 0.049560625 0.049693782 0.049750317 0.049801409 0.049987577
0.049997907 0.049940638 0.050028391 0.049881812 0.050033469 0.050148226
0.05004178 0.050136145 0.05017918 0.050171278 0.05018767 0.050148115
0.05004641 0.049951773 0.050013628 0.050046805 0.050056808 0.050017435
0.049878489 0.049838226 0.049937062 0.049801003 0.049795024 0.049803615
0.049779456 0.049722053 0.049692053 0.049715981 0.049701497 0.049648032
0.049579404 0.049574576 0.049530171 0.049502634 0.049447961 0.049541552
0.049521495 0.049515128 0.049414922 0.049512345 0.049443636 0.0494233
0.049419221 0.049328834 0.04943908 0.049373761 0.049284767 0.049348686
0.049371481 0.049388625 0.049222004 0.049222004 0.050034001 0.050030101
0.050260052 0.050095178 0.049995296 0.050011273 0.05007948 0.049976319
0.04995241 0.05001159 0.050088905 0.050081097 0.050009903 0.05004628
0.050001681 0.050151199 0.050118838 0.050244227 0.050277568 0.050295521
0.05036822 0.050310336 0.050485287 0.050402019 0.050523859 0.0505016
0.050488178 0.050605077 0.050770048 0.050746001 0.050671 0.050638206
0.050690256 0.050690822 0.050691195 0.050870135 0.050877642 0.051001739
0.050915807 0.051059119 0.051107287 0.051061008 0.051050097 0.051011708
0.050945383 0.050918367 0.050853059 0.05077083 0.050818287 0.050776307
0.050677191 0.05061765 0.050450355 0.050300263 0.050160706 0.050073516
0.049990401 0.049747922 0.049666557 0.0494923 0.049484432 0.049350906
0.049281199 0.049194209 0.0491562 0.049290359 0.049202889 0.049383454
0.049343899 0.049355712 0.049433906 0.049483951 0.049670652 0.049728908
0.049816389 0.050006386 0.050014656 0.050001234 0.050084952 0.049942579
0.050075281 0.050212253 0.050103981 0.050187189 0.050211515 0.050217818
0.050235733 0.050198577 0.050052278 0.049966618 0.050079677 0.050084408
0.050105494 0.050046731 0.049903415 0.049834911 0.049927276 0.049798466
0.049773999 0.049783807 0.049760748 0.049686562 0.049647152 0.049673554
0.049649976 0.049586371 0.049564995 0.049533889 0.049456704 0.049438253
0.049380619 0.049485147 0.04951128 0.049455803 0.049349494 0.049438644
0.049351119 0.049349863 0.049334716 0.04928007 0.049384929 0.049294237
0.049232967 0.049249176 0.04928356 0.049271766 0.049088005 0.049088005
0.050020032 0.049988069 0.050222132 0.05003446 0.049972672 0.049980789
0.050061129 0.049985152 0.049937077 0.049964193 0.050035648 0.050072066
0.049990062 0.049995635 0.050016981 0.050137307 0.050111428 0.050197683
0.050263628 0.050313864 0.050382078 0.050369605 0.050495919 0.050436661
0.050561287 0.050583966 0.050567083 0.050630894 0.050801836 0.050780654
0.050746441 0.050719105 0.050771017 0.050800048 0.050843414 0.050998475
0.050985076 0.051079787 0.051024012 0.051214356 0.051217791 0.051181886
0.051207084 0.051156655 0.051093526 0.051070407 0.051017515 0.050921235
0.050918777 0.050888598 0.050764337 0.050679293 0.050493684 0.050352208
0.050189171 0.05005642 0.049936514 0.049734417 0.049658619 0.049418531
0.049369615 0.049223695 0.049146656 0.049057297 0.049044717 0.049183436
0.049091496 0.04924288 0.049277835 0.049320921 0.049323771 0.04942615
0.04965461 0.049736477 0.049831435 0.049997952 0.050034057 0.050077189
0.050164055 0.050042648 0.050142471 0.050276831 0.050180562 0.050255258
0.050270487 0.05027888 0.050281014 0.050256044 0.050082158 0.050007332
0.050160609 0.050115116 0.050131083 0.050077919 0.049944084 0.049852453
0.04991952 0.04980595 0.04977167 0.049765594 0.049737316 0.049641691
0.049596388 0.049615644 0.049588453 0.049539071 0.049546599 0.049476314
0.049385671 0.049368065 0.04930561 0.049419895 0.049476285 0.049394563
0.049285904 0.049344964 0.04925542 0.049281646 0.049249616 0.049203437
0.049298674 0.049190562 0.049182124 0.049145278 0.049183641 0.049135689
0.048964009 0.048964009 0.049991168 0.049961068 0.050133292 0.049951941
0.049927242 0.049936764 0.050021052 0.049989581 0.049946144 0.049935386
0.049979605 0.050035503 0.049955726 0.049957559 0.050034691 0.050113268
0.050084539 0.050152157 0.050263871 0.050339982 0.050396256 0.050411668
0.050483469 0.050468262 0.050598677 0.05065535 0.050635289 0.050648041
0.050814964 0.050829776 0.050827894 0.050809305 0.050862644 0.050935283
0.051010005 0.051120266 0.051109672 0.051175747 0.051159348 0.051364075
0.051336158 0.051308416 0.051360168 0.051320344 0.051283773 0.051246736
0.051209997 0.051103991 0.051034745 0.051029533 0.050864168 0.050745986
0.050567169 0.050413609 0.05022433 0.050051674 0.049881138 0.049700774
0.049630657 0.049355794 0.049266338 0.049097057 0.049001135 0.048906121
0.048903275 0.049030133 0.04896963 0.049092345 0.049205061 0.049275737