# vtk DataFile Version 3.0
axinsert(project(???,0,L2),2)
ASCII
DATASET STRUCTURED_POINTS
DIMENSIONS 256 1 1
ORIGIN 0 0 0
SPACING 1 1 1
POINT_DATA 256
SCALARS nrrd12421 float
LOOKUP_TABLE default
0 0 0 0 0 0 0 0 0 0 0 0 0 0 0 0 0 0 0 0 0 0 0 0 0 0 0 0 0 2.4494898e-06
1.9261361e-05 0.00013604411 0.00095596077 0.0063484255 0.039121993
0.21574984 0.97711343 2.2961609 1.4339674 1.5353544 1.3527118 0.94167078
1.1570734 1.562975 1.822624 1.7566756 1.5236591 1.8024353 1.7554724
1.6468849 2.0412312 2.476557 2.0954609 1.625191 1.2951292 1.1037745
0.99841642 0.93600434 0.89505291 0.86598533 0.84359574 0.8249014 0.80844277
0.79340732 0.77948517 0.76640779 0.75409007 0.74243224 0.73136163
0.72081971 0.71076488 0.70124984 0.69201499 0.68318629 0.67487103 0.6669243
0.65928704 0.65190023 0.64467108 0.6375773 0.63091904 0.62460613 0.61873913
0.61376607 0.60939169 0.60508192 0.60042232 0.59539199 0.58990192
0.58474582 0.58030444 0.57686615 0.5745278 0.57318008 0.5721696 0.56981409
0.56664026 0.5613454 0.55460972 0.54846048 0.54361582 0.53999639 0.53684086
0.53166169 0.52669573 0.52427953 0.52406442 0.5240109 0.5218122 0.51454401
0.50321132 0.49052632 0.48016971 0.47507128 0.47041979 0.46795276
0.47977313 0.51840341 0.55281109 0.57155424 0.58964771 0.63406467
0.68730599 0.6955111 0.69005561 0.69051462 0.69812822 0.6801967 0.6801967
0.64288998 0.62913346 0.63352746 0.62563169 0.57315892 0.50238144
0.46208766 0.45287603 0.43440148 0.40863717 0.37495485 0.34275806 0.3140384
0.28814617 0.27584869 0.28101894 0.31972283 0.38731486 0.44889629
0.46976218 0.46359053 0.43641591 0.37393385 0.28635043 0.21273263
0.18155017 0.16925086 0.16153796 0.16339576 0.17847843 0.21516427
0.26732582 0.30697122 0.33143336 0.35312372 0.38133186 0.41991746 0.4669165
0.517151 0.56899744 0.62144125 0.67266417 0.72010839 0.76217401 0.79711103
0.82474041 0.84820563 0.8642413 0.87028742 0.86634481 0.85395586 0.83641213
0.81639677 0.79602909 0.77618128 0.7562061 0.73452443 0.71169066 0.68353802
0.64706349 0.59933913 0.5428257 0.48277014 0.41852617 0.35399905 0.29509455
0.24099375 0.17828621 0.10027573 0.033214722 0.0040320083 0.00036122015
2.8407747e-05 2.4494898e-06 0 0 0 0 0 0 0 0 0 0 0 0 0 0 0 0 0 0 0 0 0 0 0 0
0 0 0 0 0 0 0 0 0 0 0 0 0 0 0 0 0 0 0 0 0 0 0 0 0 0 0 0 0
