# vtk DataFile Version 3.0
axinsert(project(permute(???,2,0,1),0,L2),2)
ASCII
DATASET STRUCTURED_POINTS
DIMENSIONS 128 256 1
ORIGIN 0 0 0
SPACING 1 1 1
POINT_DATA 32768
SCALARS nrrd52472 float
LOOKUP_TABLE default
0.05000113 0.049939003 0.049970277 0.049955003 0.049983665 0.049966998
0.049962409 0.050035771 0.050062288 0.050070129 0.049991101 0.050019443
0.050035015 0.050021108 0.050041027 0.049972083 0.049919069 0.049957383
0.0500466 0.05000205 0.049947329 0.050033614 0.050053086 0.050018027
0.049987003 0.049967337 0.050053596 0.050068781 0.049940027 0.049971297
0.050011065 0.050011005 0.04998504 0.050007209 0.049998179 0.049937151
0.049940009 0.049954642 0.050049312 0.050035179 0.050013006 0.049986165
0.050026029 0.049992025 0.050043151 0.050008237 0.049943004 0.049964145
0.050027724 0.050052311 0.04998403 0.049931146 0.050001182 0.050025102
0.050029583 0.050056037 0.050013009 0.049996026 0.050029073 0.050049152
0.04998032 0.049961034 0.049966194 0.050017133 0.050023027 0.049977228
0.049937069 0.049911059 0.050041243 0.049999058 0.050015006 0.04998602
0.050050527 0.050044414 0.049950033 0.049963087 0.050014012 0.050003015
0.049994428 0.050023016 0.04995507 0.049922548 0.050017267 0.050051156
0.050032154 0.049968168 0.049982373 0.050066337 0.050044332 0.049954031
0.050005008 0.050021 0.050028037 0.050024021 0.049993102 0.050024029
0.049964685 0.049967192 0.049984004 0.050040036 0.049992029 0.049974006
0.050000031 0.050021168 0.050015435 0.050023999 0.050008792 0.049979005
0.050040185 0.050004169 0.04997405 0.049981117 0.049993016 0.050026353
0.049973316 0.049981017 0.049956001 0.049986012 0.050011102 0.050014004
0.05001501 0.050009999 0.049968999 0.050038088 0.050025057 0.049999207
0.050001055 0.050001055 0.049870331 0.049846366 0.049994491 0.050010383
0.049955029 0.049954668 0.049871001 0.050058749 0.05009516 0.050095089
0.049987935 0.049962059 0.05008145 0.050023679 0.050043702 0.049983412
0.049863286 0.049945384 0.050146762 0.050047345 0.049856707 0.050132532
0.050138298 0.050000485 0.050068822 0.049863044 0.050049037 0.050092179
0.049848806 0.049998261 0.050042778 0.050056331 0.049935605 0.049980868
0.050028279 0.049913082 0.049970247 0.049919195 0.050038397 0.050096318
0.050000165 0.050084569 0.050062075 0.04999942 0.050031085 0.050019145
0.04986503 0.049868565 0.049903043 0.050159175 0.050071023 0.049924813
0.050159145 0.04995602 0.04995719 0.050094053 0.050070122 0.050064001
0.050030999 0.049987007 0.05002762 0.04995811 0.049913242 0.050017115
0.050054424 0.049932029 0.049909472 0.049921669 0.050005052 0.050004061
0.049993001 0.050028138 0.050106 0.050073113 0.049872108 0.050075129
0.050066318 0.049871318 0.049981002 0.05017928 0.049967717 0.049868699
0.050003212 0.05004961 0.050078526 0.049993142 0.049907979 0.050134644
0.050015613 0.049941197 0.050083984 0.050056718 0.050016016 0.049990103
0.050072875 0.05003009 0.04986592 0.049901024 0.049999148 0.050066009
0.050021339 0.049977127 0.049973395 0.050096046 0.050104495 0.049996801
0.05002429 0.049937651 0.050016336 0.050004281 0.049948864 0.050025146
0.05008164 0.049979527 0.050029494 0.049957782 0.049888596 0.049965743
0.050009731 0.050005373 0.049957473 0.050043013 0.049992613 0.049957294
0.049951006 0.050004046 0.050049089 0.050049089 0.049753305 0.049889524
0.05004108 0.050103929 0.049952999 0.049976233 0.049911007 0.050026484
0.050055999 0.049932491 0.050004937 0.049891468 0.049944121 0.04998121
0.049968906 0.050041065 0.049971126 0.050005998 0.050174538 0.050093736
0.049895193 0.050122045 0.050139118 0.049961865 0.050107338 0.049921881
0.049988665 0.04994816 0.049855363 0.050064217 0.050003324 0.050021429
0.049932718 0.050050311 0.050094806 0.049956892 0.050020847 0.050005302
0.050022297 0.050099343 0.04999027 0.050150502 0.050072238 0.04999328
0.049984135 0.049960539 0.049912479 0.049867351 0.049823247 0.050202928
0.050186034 0.050029371 0.050229087 0.049853232 0.049905032 0.050083153
0.050107006 0.050113089 0.049971014 0.049859222 0.050095081 0.05002407
0.049961023 0.049960073 0.050030235 0.049998026 0.050009001 0.049997564
0.049931001 0.050048321 0.050000105 0.050082278 0.050097443 0.05000421
0.049910445 0.050182432 0.050096501 0.049829561 0.050022114 0.050173808
0.050069928 0.050027192 0.049958825 0.049953826 0.050149851 0.050080076
0.049918074 0.050005261 0.049966034 0.050051257 0.050069958 0.050050061
0.049914744 0.049978655 0.050054301 0.049983159 0.049942307 0.049973249
0.049966726 0.04992681 0.050098095 0.050107494 0.049931057 0.050128564
0.050170921 0.049884565 0.049982853 0.049994733 0.04993356 0.050038874
0.049965035 0.050070886 0.05014785 0.049901213 0.050043069 0.049945548
0.04989481 0.049976524 0.050000183 0.050012488 0.049884222 0.049979206
0.050034389 0.049830243 0.049875036 0.050019197 0.050007023 0.050007023
0.049733248 0.049946185 0.049953099 0.050115105 0.049902145 0.049998671
0.050009102 0.050008707 0.050065245 0.04977601 0.049997415 0.049840346
0.049826611 0.049969032 0.049936697 0.050065398 0.050000798 0.050043266
0.05016391 0.050092369 0.049963079 0.050005302 0.050146624 0.049999341
0.050050784 0.049977295 0.049983546 0.049891338 0.049907293 0.050087273
0.049913298 0.049969204 0.049995169 0.050189365 0.050089438 0.049937576
0.049927633 0.050062813 0.050133195 0.050095152 0.050014179 0.05009551
0.050111972 0.050025694 0.049997639 0.049909472 0.049929772 0.04994702
0.049961623 0.050213281 0.05018986 0.050097454 0.050173119 0.04983373
0.049942117 0.050185353 0.050104007 0.050103497 0.049974069 0.04984929
0.050088111 0.050032347 0.050080068 0.049924031 0.049968023 0.050096065
0.050131332 0.049942225 0.049948197 0.050110407 0.050016589 0.050115712
0.050072934 0.050029434 0.04998257 0.050110172 0.05009678 0.049967203
0.05005512 0.050129149 0.050188135 0.050105073 0.049961023 0.049958959
0.050197206 0.050107986 0.049967434 0.049869224 0.050019577 0.050080031
0.049996588 0.050030388 0.049831457 0.050032284 0.049983531 0.049995363
0.05011769 0.050056469 0.049925476 0.0497928 0.050117668 0.050126184
0.049966797 0.050110202 0.050175603 0.04986107 0.049920667 0.050051514
0.049916998 0.050074395 0.049969543 0.050007768 0.050112516 0.049867485
0.049954191 0.049927298 0.049889348 0.049998209 0.049997505 0.049986124
0.049874764 0.049926136 0.050009493 0.049822032 0.049907275 0.05000123
0.049864076 0.049864076 0.049711008 0.049943268 0.049843185 0.050074171
0.049900655 0.049969923 0.050083149 0.049961004 0.050017033 0.049719222
0.049947385 0.049789183 0.049843352 0.04998922 0.049927369 0.05002439
0.049996126 0.050084755 0.050073378 0.049985196 0.050009277 0.049929708
0.050127346 0.050059427 0.049993481 0.04996356 0.049993884 0.049904585
0.049972881 0.050123401 0.049869709 0.049940567 0.050038189 0.050247759
0.050023276 0.049935896 0.049876109 0.050055392 0.050234362 0.050085429
0.050082747 0.050048251 0.050179716 0.050120216 0.050034758 0.049931258
0.04997047 0.05003868 0.05011775 0.050146926 0.050147139 0.050216023
0.050154261 0.049874227 0.049979351 0.050230619 0.050080284 0.050171714
0.050026011 0.049891371 0.050071187 0.050011374 0.050203107 0.049931001
0.0498913 0.05013103 0.050251286 0.04993514 0.050007682 0.050133549
0.050077699 0.050149545 0.050045941 0.050099548 0.050048638 0.050067741
0.050092887 0.050119344 0.050025407 0.050162479 0.050308298 0.050100114
0.050025534 0.050051235 0.050157331 0.050091494 0.049972557 0.049842495
0.050079107 0.050026622 0.049982373 0.05001533 0.049847346 0.050060693
0.049975201 0.050115421 0.050260209 0.05003868 0.0499123 0.049769953
0.050049055 0.050040066 0.050016131 0.050050069 0.050153222 0.049890503
0.049948156 0.050030429 0.049925711 0.050086521 0.049917497 0.049973477
0.050017953 0.049853716 0.049846999 0.04984048 0.049885396 0.049999576
0.049964726 0.049912222 0.049867459 0.049949277 0.049954385 0.04979907
0.049955104 0.049959242 0.049759001 0.049759001 0.04966611 0.049836211
0.049780168 0.049980626 0.049970295 0.049886405 0.050026368 0.049889993
0.049926523 0.049746372 0.049900979 0.049768604 0.049906272 0.049979482
0.049921121 0.049927253 0.049981285 0.050084077 0.049917962 0.049900763
0.050003182 0.049913898 0.050086346 0.050085496 0.049975604 0.049923532
0.049995679 0.049951244 0.049985234 0.05010692 0.049933698 0.049934749
0.050014898 0.050224423 0.049953051 0.049998377 0.049932811 0.050027028
0.050278753 0.050111551 0.050183538 0.05002261 0.050212294 0.050211228
0.050093275 0.050006002 0.050076075 0.050108593 0.050182119 0.050072838
0.050176427 0.050310709 0.050147355 0.050008096 0.050040044 0.05020088
0.050105222 0.050290529 0.050071191 0.049945284 0.050100002 0.049993105
0.050284002 0.050000999 0.049903259 0.050102293 0.050297029 0.050032344
0.050071761 0.050112847 0.050176606 0.050178248 0.050059799 0.05015238
0.050096441 0.050160788 0.050139602 0.050222091 0.049958464 0.050208438
0.050337277 0.050118357 0.050112799 0.050137836 0.05014893 0.050078377
0.049974006 0.04995244 0.050071698 0.050014332 0.049961168 0.049997274
0.049975511 0.050069306 0.049995907 0.050234206 0.050327785 0.049939405
0.049932804 0.04981048 0.049957693 0.049986839 0.050038248 0.050008576
0.050089389 0.049852252 0.050000429 0.049948681 0.049933523 0.05005065
0.049844 0.050034575 0.049877226 0.049860187 0.049767345 0.049715683
0.049909953 0.049942911 0.049894992 0.049810536 0.049862489 0.049943853
0.049889114 0.049762432 0.049953017 0.049918205 0.049703017 0.049703017
0.049641393 0.049693 0.04975 0.049829066 0.04997028 0.049835496 0.049841687
0.049791377 0.049878262 0.049772725 0.049846515 0.049778134 0.049921811
0.049942303 0.049942601 0.049837932 0.049928039 0.050053384 0.049779512
0.049926601 0.049943596 0.04984821 0.050035939 0.050028585 0.05000098
0.049879305 0.049979754 0.050004814 0.049909383 0.05003576 0.050027166
0.049939491 0.04997424 0.050205048 0.049922995 0.050101735 0.050049365
0.049984884 0.050293773 0.050157573 0.050266057 0.049998336 0.05022347
0.050258376 0.050129876 0.050112817 0.050217375 0.050176807 0.050183773
0.050062198 0.050251737 0.050306916 0.050109133 0.050220381 0.050142586
0.050196473 0.050165284 0.05036832 0.050118726 0.049984116 0.050173394
0.050023001 0.050320044 0.050086003 0.050043017 0.050055306 0.050250009
0.05016236 0.050119396 0.050099511 0.050271485 0.050184317 0.05015571
0.050205179 0.050157644 0.0503029 0.050235927 0.050280862 0.049901314
0.050234955 0.050234009 0.050182957 0.050204504 0.050162327 0.050246641
0.050106518 0.050026637 0.050070241 0.050029583 0.050089132 0.04988965
0.049979448 0.050101895 0.050109703 0.050037153 0.050246485 0.05030619
0.049823832 0.049985904 0.049875349 0.049881462 0.05000177 0.050052885
0.049981002 0.049994983 0.049742755 0.049941145 0.049842406 0.049952663
0.04996223 0.049806979 0.050110709 0.049740646 0.049873903 0.049771346
0.049638294 0.049900435 0.049839314 0.04974702 0.049705401 0.049909614
0.049868174 0.049837045 0.049759876 0.049875032 0.04988011 0.049658999
0.049658999 0.049678586 0.049628142 0.049722463 0.04961402 0.049826451
0.049850896 0.04964333 0.049682479 0.049870558 0.049752619 0.049777374
0.049763661 0.049881868 0.049943514 0.050004181 0.049804624 0.049841467
0.050036594 0.049754284 0.050012946 0.0498491 0.049697675 0.049959812
0.049880631 0.050040126 0.049846079 0.049937204 0.050070945 0.049749359
0.050005827 0.050083205 0.049952205 0.049968809 0.050208643 0.049959272
0.050162032 0.050168496 0.049976982 0.050312489 0.050201155 0.050264809
0.04999071 0.050269287 0.050274078 0.050078321 0.050245643 0.050336137
0.050229229 0.050217401 0.050091002 0.050272033 0.050245039 0.050067235
0.05041587 0.050298549 0.050254066 0.050142307 0.050380077 0.050159469
0.050004024 0.050223384 0.050113004 0.050323009 0.050100002 0.050249118
0.050039854 0.050136056 0.050251007 0.05011503 0.05013201 0.050326124
0.050212007 0.050278395 0.050279371 0.050242938 0.050379492 0.050324425
0.050326675 0.049894281 0.050264254 0.050039891 0.050262641 0.050296098
0.050144203 0.05034012 0.050214861 0.0501181 0.050084274 0.050049808
0.050192036 0.049806777 0.049953215 0.050127059 0.050199557 0.050173711
0.050167106 0.050178271 0.049736809 0.050016288 0.049968433 0.049803205
0.050044477 0.050091233 0.049966183 0.049903508 0.049623895 0.049777288
0.04972912 0.049961485 0.049839519 0.049830843 0.050135262 0.049713355
0.049872514 0.04984628 0.049622759 0.049811047 0.049744084 0.049512569
0.049615111 0.050002478 0.049771525 0.049832072 0.049764864 0.049756046
0.04985607 0.049606003 0.049606003 0.049770467 0.049661156 0.049686924
0.049396023 0.049619999 0.049887903 0.049533002 0.049598735 0.049843032
0.049708176 0.049736168 0.049663272 0.049845744 0.050014626 0.050059803
0.049842946 0.049806215 0.050024252 0.049880404 0.050031241 0.049726836
0.049574729 0.049841493 0.049712941 0.050063256 0.049844146 0.049898263
0.050139759 0.049605664 0.050084051 0.050117463 0.049968071 0.050014086
0.050187819 0.050040584 0.050129652 0.050252795 0.050081089 0.050348584
0.050255999 0.050210193 0.05002702 0.050362002 0.050262176 0.049967073
0.050373007 0.050355084 0.050255276 0.050338376 0.050115045 0.050230809
0.050175998 0.050100259 0.050492272 0.050485205 0.050296426 0.049970113
0.05034614 0.050156005 0.050010007 0.050202001 0.050194141 0.050325092
0.05000015 0.050379321 0.050062004 0.05001023 0.050285473 0.050061151
0.050166126 0.050323129 0.05028766 0.050311003 0.050331812 0.050336029
0.050384503 0.050355133 0.050383344 0.049941014 0.050303016 0.049892999
0.050306145 0.050398 0.050169062 0.050293248 0.050372116 0.050202284
0.050052051 0.050177019 0.050255574 0.049804583 0.049912743 0.050097398
0.050250314 0.0504415 0.050087914 0.050004482 0.049701437 0.049966879
0.050071478 0.049720719 0.05008648 0.050143544 0.050011296 0.049813949
0.049562994 0.049651574 0.049609497 0.04990419 0.049746018 0.04991189
0.050139487 0.049843304 0.049811952 0.049908768 0.04963531 0.04968629
0.049691409 0.049290825 0.049535088 0.050036207 0.049729001 0.049904112
0.049746543 0.049663026 0.049835101 0.049556002 0.049556002 0.049859125
0.049725004 0.049643196 0.049309049 0.049474131 0.049884461 0.049532026
0.049580272 0.049739163 0.04969031 0.049756225 0.049486775 0.049838252
0.050087024 0.050046116 0.049963906 0.049887229 0.04999581 0.050062101
0.049924999 0.049587309 0.049596548 0.049738005 0.049615234 0.050082024
0.049860284 0.04994002 0.050134618 0.04961605 0.050218042 0.050161149
0.049995009 0.050085433 0.050142348 0.050105177 0.050048824 0.050299998
0.050281376 0.050399259 0.05031101 0.050211128 0.050109737 0.050456438
0.0502056 0.049910095 0.050428279 0.050213885 0.0503125 0.05047458
0.05017161 0.050220195 0.0501303 0.050212588 0.050433166 0.050598692
0.050254039 0.049743243 0.050288104 0.050055325 0.050011262 0.050091285
0.050208271 0.0503323 0.049826525 0.050362218 0.050056245 0.049942765
0.050286714 0.050000858 0.050145768 0.050247356 0.050335862 0.050233513
0.050292298 0.050415695 0.050354533 0.050340042 0.050436907 0.05002578
0.050317813 0.049947061 0.050289638 0.050502378 0.050286829 0.050142337
0.050439533 0.050273247 0.050060648 0.05036284 0.050266426 0.049933754
0.049910098 0.050100196 0.050182093 0.0506698 0.050111499 0.04991705
0.049755365 0.049859304 0.050131999 0.049673408 0.050115999 0.050165419
0.050120011 0.049726408 0.049595017 0.049676321 0.049488205 0.049772654
0.049713105 0.050005402 0.050179005 0.050032757 0.049670894 0.049879
0.049692221 0.049614355 0.049676109 0.049220212 0.049489375 0.049906138
0.049741317 0.050059203 0.049706176 0.04962502 0.049788084 0.049527045
0.049527045 0.049885999 0.049719855 0.049610239 0.049397897 0.049460035
0.04982331 0.049604107 0.049646001 0.049558017 0.049713325 0.049810167
0.049348906 0.049810007 0.050077848 0.049953055 0.050125554 0.05004324
0.049989626 0.050151177 0.049776245 0.049472261 0.049745586 0.04972611
0.049660239 0.050087187 0.049899526 0.050034363 0.050018214 0.049784556
0.050284553 0.050202463 0.050063301 0.050162371 0.050128128 0.050126486
0.050008744 0.050323628 0.050460614 0.050441395 0.050352052 0.050308879
0.050223075 0.050478008 0.050131992 0.049961396 0.050374806 0.049992099
0.050421279 0.050512254 0.050303329 0.050304897 0.050106674 0.050329462
0.05029811 0.050536044 0.050146382 0.04963439 0.050209295 0.049841683
0.050011352 0.049887422 0.050179038 0.050284125 0.049672835 0.050253082
0.049950052 0.049949341 0.050269902 0.0499608 0.050086677 0.050093062
0.050274339 0.050118808 0.050219588 0.050426394 0.050308358 0.050314303
0.050451238 0.050129522 0.050304856 0.050199665 0.050262608 0.050550435
0.050454497 0.050011445 0.050368562 0.050310645 0.0501092 0.050508451
0.050256617 0.050146416 0.050011434 0.050139043 0.050060153 0.050623845
0.050257005 0.050004113 0.049926218 0.049779046 0.050112516 0.049707007
0.050101109 0.050156116 0.050188251 0.049719054 0.049683053 0.049821213
0.049398348 0.049646024 0.049700003 0.050030001 0.05021809 0.050124001
0.04953007 0.049770191 0.049814712 0.049630061 0.049666353 0.049366005
0.049519692 0.049662281 0.049750317 0.050231405 0.049635999 0.049628008
0.049724005 0.049532071 0.049532071 0.049806003 0.049611639 0.049602948
0.049560256 0.049575046 0.049724724 0.049714793 0.049722016 0.049398441
0.049742658 0.049852204 0.049369644 0.049705047 0.050003488 0.049857054
0.050218739 0.050205022 0.050009154 0.050117008 0.049679 0.049465314
0.049893696 0.049818002 0.049847003 0.050027344 0.049983136 0.050041933
0.049880233 0.049987361 0.050228521 0.050253 0.050184481 0.050261632
0.050181597 0.050151557 0.050072204 0.050308533 0.050535221 0.050452933
0.050400205 0.050439712 0.050333146 0.050416876 0.050098173 0.050095335
0.05024901 0.049894366 0.050519522 0.050427124 0.050468549 0.050397608
0.050109364 0.05037275 0.050144032 0.050342966 0.050029878 0.049730666
0.050095394 0.049603641 0.049987093 0.04964415 0.050129198 0.05012003
0.049602743 0.050116051 0.049779724 0.049962267 0.050230216 0.049945347
0.05000937 0.049904812 0.0501175 0.050064672 0.050240271 0.050351709
0.050262176 0.050292507 0.050399851 0.050261512 0.050318155 0.050486475
0.0502497 0.050521664 0.050572179 0.049997725 0.050262079 0.050288863
0.050151832 0.050529089 0.050249215 0.050360743 0.050176963 0.050211418
0.049994219 0.050356422 0.050406091 0.050226387 0.05015853 0.049780041
0.050044354 0.049802005 0.050023999 0.050135378 0.050134048 0.049837299
0.049803331 0.049930073 0.049393542 0.04961 0.049677685 0.049898013
0.050168157 0.050052516 0.049519449 0.049689103 0.049931627 0.04967
0.049643736 0.049662013 0.049636286 0.049479455 0.049752001 0.050264437
0.04952414 0.049637005 0.049681146 0.049595051 0.049595051 0.049614042
0.04946873 0.049608406 0.049674135 0.049740087 0.049625702 0.049824871
0.049725588 0.049353566 0.049752399 0.049846508 0.049547657 0.049559999
0.04995225 0.049820006 0.050169434 0.050303522 0.050028656 0.050018571
0.049670614 0.049618423 0.049952257 0.049948245 0.050062053 0.04994116
0.050025001 0.049950019 0.049811199 0.050136998 0.050124105 0.050338287
0.050335955 0.050360069 0.05028503 0.050242726 0.050213046 0.050260942
0.050494995 0.050439581 0.050476484 0.050515126 0.05039914 0.050356403
0.050142638 0.050253022 0.050145987 0.050041351 0.05054279 0.05029865
0.0505757 0.050337423 0.050153095 0.050294619 0.050014984 0.050159663
0.049947739 0.049935505 0.049951408 0.049470637 0.049909454 0.049448013
0.050029911 0.04988559 0.049617272 0.049955111 0.049643248 0.049919672
0.050143357 0.049958415 0.049873054 0.049748905 0.049969904 0.050105922
0.050365005 0.050267838 0.050254907 0.050281871 0.050290085 0.050436299
0.050403453 0.050624825 0.050226245 0.050474979 0.050584607 0.05012729
0.050230555 0.05026561 0.050163388 0.050425142 0.050256021 0.050500263
0.050303735 0.050312262 0.050059065 0.050128154 0.050469033 0.050424695
0.050352175 0.04983902 0.050014008 0.049904075 0.049915336 0.050108109
0.050001238 0.049991574 0.049960028 0.049879193 0.049477506 0.049683038
0.049660537 0.049650047 0.050014038 0.049884602 0.049662668 0.049739059
0.049921561 0.049622048 0.049637187 0.049949005 0.04976603 0.049507249
0.04975142 0.050097138 0.049416404 0.049617998 0.049677644 0.049723003
0.049723003 0.049396142 0.049354143 0.049631 0.04968027 0.049869001
0.049537893 0.049862199 0.04965131 0.049426015 0.049756449 0.0497973
0.049775686 0.049480006 0.04997183 0.049834009 0.050016556 0.050289672
0.050011389 0.049913466 0.049733814 0.049886588 0.049960002 0.050026491
0.050173081 0.049897213 0.049950041 0.049867064 0.049858 0.050207142
0.050094076 0.050449129 0.050450947 0.050397001 0.050373886 0.050407108
0.050351743 0.050226144 0.050395314 0.050407343 0.050561305 0.050497871
0.050423548 0.050376449 0.050264489 0.050395522 0.050127808 0.050343752
0.050494175 0.050231658 0.050571427 0.050131615 0.050214678 0.050104424
0.049936503 0.050052766 0.049919032 0.050067458 0.049821645 0.049475003
0.049771868 0.049360003 0.049836263 0.04970346 0.049687002 0.049766295
0.04958884 0.049824268 0.049984708 0.049985852 0.049658235 0.049644507
0.049937185 0.050168186 0.050466008 0.050262589 0.050310031 0.050294437
0.050165545 0.050606359 0.050528865 0.05057032 0.050202951 0.050449386
0.050530273 0.050346535 0.050312653 0.050322637 0.050174005 0.05028091
0.050298475 0.05053588 0.050338339 0.050398007 0.050235037 0.050113142
0.050468143 0.050439298 0.050444022 0.049915064 0.050067075 0.050022099
0.049838368 0.050093029 0.049868185 0.050098367 0.050087649 0.049707003
0.04958139 0.049796332 0.049673162 0.049460713 0.049844164 0.049719017
0.049822409 0.049894717 0.049755003 0.049469091 0.049676735 0.050085012
0.049811497 0.049733017 0.049719434 0.049857005 0.049395468 0.049581096
0.049683951 0.049865127 0.049865127 0.049274053 0.049318057 0.049633108
0.049631316 0.049900021 0.049478702 0.049769018 0.049579382 0.049587011
0.049740568 0.049771052 0.049905594 0.049524009 0.050008055 0.049862999
0.049893018 0.050153412 0.049923703 0.049852967 0.049818985 0.050154783
0.049989078 0.050007414 0.050154001 0.04990603 0.049854022 0.049877752
0.050037611 0.050206017 0.050150499 0.05055308 0.050450262 0.050349999
0.050395522 0.050561018 0.050445672 0.050229125 0.050331961 0.05035815
0.050575007 0.050440032 0.050467502 0.050472528 0.050422538 0.050533228
0.050201263 0.050594825 0.050425336 0.050251886 0.05048864 0.049991958
0.050241832 0.049887802 0.049903534 0.049960665 0.049931552 0.050028369
0.049749468 0.049523391 0.049598563 0.049388018 0.049593322 0.049597874
0.04978025 0.049579658 0.049598508 0.049710266 0.049730562 0.04996575
0.04946224 0.049587257 0.050032079 0.050161462 0.050406169 0.050339833
0.050385088 0.050339159 0.050074037 0.050656155 0.050610077 0.050454225
0.05024448 0.050428472 0.050474681 0.050574094 0.05046868 0.050481062
0.050248142 0.050205186 0.050373156 0.050519459 0.050302129 0.050424866
0.050403096 0.050298072 0.050425965 0.050266318 0.050428089 0.049998686
0.050176047 0.050198004 0.04987175 0.050084401 0.049774442 0.050146148
0.050131392 0.049568258 0.049663469 0.049855236 0.049716499 0.049465194
0.04977645 0.049579952 0.049852122 0.050000325 0.049533222 0.049355999
0.049738105 0.050022043 0.04975925 0.049950026 0.049683016 0.049693041
0.049503386 0.049566679 0.049664553 0.049926616 0.049926616 0.049292017
0.049379416 0.049549066 0.049598385 0.049813002 0.049501009 0.049567174
0.049575079 0.049774475 0.049704324 0.04979543 0.049883328 0.049634058
0.049955018 0.049926389 0.049862403 0.049951445 0.049788248 0.049861223
0.04989507 0.050289974 0.050046001 0.049923461 0.05006332 0.049953546
0.049859051 0.050042897 0.050277736 0.050165091 0.050227247 0.050587393
0.050348088 0.050272003 0.050341472 0.050604172 0.050487235 0.050283022
0.050375693 0.050317343 0.050470319 0.050427999 0.050576426 0.050570555
0.050581977 0.050684027 0.050348114 0.050664172 0.050363582 0.05030337
0.050390936 0.050094146 0.050225046 0.049776323 0.049888957 0.049811214
0.049933825 0.049861994 0.049722992 0.049496818 0.04943933 0.049492002
0.049378566 0.049500536 0.04983433 0.049438484 0.049626123 0.049607012
0.049398318 0.049828183 0.049417172 0.049596943 0.050170731 0.050094947
0.050194588 0.05040675 0.050398301 0.050397467 0.050044965 0.050530039
0.050600961 0.050426565 0.050381053 0.050382528 0.050445456 0.050748486
0.050637513 0.050699152 0.050415471 0.050250854 0.050448384 0.050537292
0.05026909 0.050400291 0.050459113 0.050523277 0.050376423 0.050030421
0.050365347 0.050084129 0.050301 0.050389186 0.050044801 0.050073761
0.049762689 0.050129347 0.050099216 0.049569778 0.049756851 0.049829476
0.049763363 0.049640518 0.049810216 0.049469091 0.049738929 0.049943417
0.049373303 0.049429309 0.04975209 0.049838077 0.049675152 0.049950033
0.049691107 0.049638007 0.049688451 0.049598448 0.049629111 0.049866859
0.049866859 0.049413145 0.049477804 0.049428035 0.049552336 0.049673084
0.049622148 0.049363151 0.04963322 0.049890529 0.049713001 0.0497775
0.049786072 0.049722999 0.049752042 0.050026178 0.049877226 0.049795575
0.049668059 0.049927864 0.049973022 0.05023329 0.050092354 0.049833916
0.04998998 0.050001405 0.049966704 0.050344307 0.050452057 0.050138012
0.050258018 0.050538044 0.050256293 0.050248001 0.050239332 0.050523221
0.050494008 0.050377104 0.050530229 0.050317723 0.050344303 0.050502427
0.05068703 0.050609227 0.050716043 0.050809231 0.050526157 0.050588075
0.050326925 0.0503303 0.050312143 0.050365292 0.050191469 0.049853172
0.049868442 0.049640164 0.049874783 0.049669743 0.04964764 0.049350061
0.049338847 0.04959017 0.049234644 0.049369019 0.049779065 0.049325023
0.049622431 0.049517881 0.049095988 0.04958947 0.049528323 0.049681265
0.050231948 0.050052833 0.049985763 0.050363775 0.050316099 0.050437301
0.050107691 0.050342351 0.050529648 0.050505124 0.050528821 0.050328545
0.050465148 0.050843395 0.050760441 0.050901294 0.050624344 0.050383285
0.050505958 0.050620537 0.050311163 0.050402042 0.050419003 0.050611269
0.050388999 0.049860146 0.050324295 0.050162304 0.050391003 0.050488103
0.05027305 0.050081659 0.049840137 0.050064161 0.050020017 0.049724896
0.049882323 0.049765646 0.049801648 0.049848337 0.049831413 0.0494394
0.049610537 0.049735196 0.049326554 0.049647216 0.049662758 0.049683098
0.049612563 0.049739026 0.049743041 0.049614433 0.049830548 0.049700044
0.049566027 0.049742822 0.049742822 0.049546108 0.049566597 0.049375042
0.049466673 0.049552053 0.049744364 0.049283028 0.049684431 0.049907025
0.04973847 0.049677007 0.04967301 0.04978656 0.049476016 0.050048288
0.049896073 0.049751595 0.049639031 0.049998872 0.050066013 0.05005588
0.050111916 0.049794499 0.049997985 0.049989935 0.050079536 0.050635166
0.050466001 0.050186664 0.050232176 0.050470632 0.050267018 0.050309122
0.050160047 0.050423119 0.050507024 0.050487019 0.050723225 0.050375853
0.050370805 0.050624378 0.050691023 0.050601851 0.050785787 0.050846469
0.050666403 0.050510317 0.050367258 0.050347209 0.050268106 0.05057399
0.05014541 0.050077967 0.049843006 0.049550526 0.049758684 0.049534492
0.049447495 0.049137 0.049271308 0.049597416 0.049185127 0.049186531
0.049608078 0.049167283 0.049535181 0.049412403 0.048984636 0.049371179
0.04966158 0.049795475 0.050133772 0.050068766 0.049923968 0.050211124
0.050191857 0.050460845 0.050288755 0.050293412 0.050463919 0.050608207
0.050575871 0.050330397 0.05056937 0.050862782 0.050810564 0.051000766
0.050786324 0.050530907 0.05057209 0.050724637 0.05044527 0.05050404
0.050371122 0.050508998 0.050457284 0.049844079 0.050332006 0.050224245
0.050393023 0.050465059 0.050409023 0.05012336 0.049965031 0.049985833
0.049926084 0.049971707 0.049980521 0.049715318 0.049832013 0.049967706
0.049728781 0.049538158 0.04961358 0.04950472 0.049370144 0.049823646
0.049493667 0.04963015 0.049621142 0.049510725 0.049818207 0.049514707
0.049896214 0.049804665 0.049457077 0.049632866 0.049632866 0.049621031
0.049636494 0.049438003 0.04942289 0.049442999 0.049776703 0.049336053
0.049687002 0.04985312 0.049661588 0.049530294 0.049563076 0.049830705
0.049309034 0.049910143 0.049865544 0.049831714 0.049718156 0.050022043
0.050166097 0.049892418 0.050145011 0.049825527 0.050069444 0.049924802
0.050141878 0.050748218 0.050300088 0.05031424 0.050216053 0.05041489
0.050361451 0.050400231 0.050210081 0.050432008 0.050549004 0.050596122
0.050849333 0.050473664 0.050609339 0.050719645 0.050603222 0.050615646
0.050758958 0.050776526 0.050731108 0.050553773 0.050517272 0.050415188
0.050273754 0.050573342 0.050060455 0.050296716 0.04982838 0.049585134
0.049643502 0.049495697 0.049173627 0.048954874 0.049146648 0.049467012
0.049184464 0.048960064 0.049371857 0.048941739 0.049316362 0.049258281
0.049124699 0.049293887 0.049697801 0.049879108 0.049867224 0.050068203
0.050019465 0.05005556 0.05011902 0.050505199 0.050557032 0.050455827
0.050456464 0.050671376 0.050532136 0.050445419 0.050748363 0.050845888
0.050801449 0.050946001 0.050863784 0.050651677 0.050679427 0.050796263
0.050630145 0.050681431 0.050363291 0.050315559 0.050502393 0.04999081
0.050396182 0.050243989 0.050311152 0.05039864 0.050386 0.050183255
0.050079104 0.049923021 0.049853001 0.050212555 0.0499794 0.049688276
0.049857106 0.049957421 0.049517337 0.049714278 0.049746886 0.049400143
0.049458332 0.049846072 0.049346875 0.049661409 0.049734335 0.049444571
0.049876548 0.049345326 0.049920149 0.049770825 0.04933716 0.049540114
0.049540114 0.049663067 0.049628276 0.049595214 0.049461644 0.049371999
0.049687117 0.049436558 0.049670838 0.049710359 0.049463999 0.04937749
0.049493577 0.049831279 0.04936165 0.049681708 0.049764369 0.049988627
0.049847651 0.050002512 0.050233655 0.049825143 0.050219808 0.049903184
0.05010118 0.049920596 0.050190005 0.050624587 0.050032143 0.050466664
0.050247502 0.050358586 0.05043209 0.050466795 0.050452463 0.050562065
0.050622009 0.050686769 0.050852194 0.050575517 0.050919045 0.050761219
0.050596565 0.050712582 0.050690286 0.050654944 0.05075182 0.050743271
0.050703656 0.050568745 0.050325379 0.050409228 0.049962603 0.050348412
0.049834732 0.049693305 0.049587842 0.049530003 0.048963666 0.048881814
0.048917685 0.049183793 0.049104124 0.048693139 0.049105126 0.048710395
0.048973747 0.049070653 0.0493665 0.049356632 0.049648542 0.049927872