# vtk DataFile Version 3.0
axinsert(project(permute(???,2,0,1),0,L2),2)
ASCII
DATASET STRUCTURED_POINTS
DIMENSIONS 128 256 1
ORIGIN 0 0 0
SPACING 1 1 1
POINT_DATA 32768
SCALARS nrrd56427 float
LOOKUP_TABLE default
0.049972013 0.049988043 0.050017126 0.050004005 0.049993001 0.050050195
0.050002068 0.050012093 0.050043173 0.049933136 0.049984045 0.05002401
0.049986001 0.050060015 0.050030354 0.049975004 0.049997192 0.049968999
0.049976006 0.049947023 0.049994409 0.050036028 0.050012089 0.050026044
0.04994503 0.049974352 0.050035093 0.050025016 0.050030023 0.049991041
0.049978029 0.04998 0.049995434 0.050032005 0.049968015 0.049972255
0.050044432 0.049988054 0.049984585 0.050014999 0.049979247 0.049991
0.049986061 0.049983367 0.050008159 0.0500471 0.050008062 0.05002442
0.050007045 0.049997397 0.049995005 0.049972061 0.049975052 0.049994551
0.050011139 0.050037209 0.049984027 0.049940411 0.049997196 0.050012417
0.050061233 0.050021999 0.049958277 0.050010275 0.050068308 0.050036017
0.050004002 0.049971115 0.049944062 0.05003006 0.050040003 0.049988009
0.049986001 0.049942072 0.049956255 0.050051369 0.05006101 0.050066009
0.04998742 0.049940009 0.049977042 0.05002813 0.050019078 0.049959071
0.050009042 0.049965192 0.049983073 0.050014004 0.049947042 0.049998526
0.050053999 0.050023004 0.05002002 0.050011061 0.049991015 0.049962111
0.049988247 0.050036021 0.050030008 0.050030071 0.049979083 0.049949113
0.050006174 0.049987022 0.049973041 0.050018005 0.050011002 0.049985062
0.049991 0.049986001 0.049973998 0.04998916 0.050031055 0.05002705
0.050012045 0.050026003 0.049989 0.049964011 0.050034024 0.05000804
0.049972005 0.050035 0.050046261 0.050010279 0.049974147 0.049988016
0.049956031 0.049956031 0.049947999 0.049956001 0.050085064 0.050018035
0.049921013 0.050061043 0.050008148 0.050037008 0.050083175 0.049934071
0.049947008 0.05002705 0.049995013 0.050092008 0.049986038 0.049996227
0.050021 0.049908139 0.049962066 0.049875077 0.049951263 0.050068107
0.050000422 0.050069299 0.050026219 0.049886022 0.050058927 0.050067008
0.050040707 0.050023008 0.049924154 0.049935151 0.049979195 0.050061345
0.049924269 0.049910307 0.050136257 0.05002106 0.049954135 0.050030094
0.050039057 0.050036009 0.049876004 0.049957272 0.050073002 0.050114136
0.050006017 0.049910042 0.049991425 0.049971152 0.050018616 0.050003283
0.049939189 0.049971215 0.050027218 0.05008034 0.049975179 0.049894579
0.050030045 0.050019089 0.050065305 0.049990226 0.04991293 0.049993142
0.050063368 0.050076626 0.050067391 0.050018352 0.049879294 0.049999431
0.050089564 0.049966685 0.049964979 0.049936753 0.04990131 0.050097935
0.050146442 0.050140571 0.049963411 0.049894519 0.050024204 0.050036114
0.050032463 0.049988065 0.050038218 0.049947035 0.049946088 0.049973089
0.049894273 0.050079051 0.050133001 0.049961004 0.050034057 0.050051998
0.049980078 0.049916003 0.049933076 0.050110046 0.050057001 0.050017089
0.050003041 0.049887002 0.049944051 0.050050102 0.050038006 0.050047081
0.050037004 0.049975071 0.049955007 0.049965009 0.049976017 0.050061058
0.050055437 0.049984008 0.049977116 0.049973033 0.050017025 0.049990043
0.050011061 0.049989097 0.049990024 0.050094999 0.050150134 0.049980037
0.049876053 0.049960006 0.049939003 0.049939003 0.049970016 0.049915001
0.050057005 0.050051082 0.049862001 0.049984276 0.050069008 0.050031018
0.050003055 0.050001275 0.049998127 0.050009042 0.05001612 0.050030034
0.049936254 0.050051033 0.0500351 0.049889069 0.049978167 0.04988905
0.049936257 0.050012108 0.049968529 0.050068118 0.050092582 0.049855277
0.050009783 0.050062358 0.050023869 0.050095197 0.049939461 0.049934171
0.049952414 0.050020441 0.049958687 0.049958162 0.050136209 0.050020128
0.04996239 0.050056156 0.050101168 0.050054159 0.049833175 0.049979128
0.05009206 0.050081167 0.050023183 0.049824111 0.049928315 0.049942315
0.049991604 0.050054662 0.049978469 0.049947452 0.050033625 0.050074279
0.049960505 0.049980376 0.050027158 0.049964655 0.050014667 0.049919624
0.049934216 0.049970631 0.050010376 0.050062444 0.050112322 0.050097313
0.049920943 0.049952239 0.050003123 0.049933903 0.0499724 0.050049897
0.049938578 0.050022855 0.05011506 0.050086316 0.050020434 0.049986754
0.050061561 0.049977873 0.050024103 0.050045744 0.050037075 0.050008651
0.049935661 0.049924821 0.049952578 0.050143372 0.050144307 0.049950179
0.050043058 0.050050091 0.049973104 0.049909081 0.049960133 0.050117999
0.050007094 0.049970098 0.050046101 0.049931046 0.049896017 0.050130002
0.050117005 0.049996998 0.050035041 0.050000999 0.049970023 0.049988013
0.050029002 0.050122067 0.04998203 0.049951002 0.049918048 0.049882069
0.050099015 0.050077006 0.049910001 0.049949098 0.050080005 0.050127
0.050110068 0.049957063 0.04988008 0.049929 0.049965002 0.049965002
0.049981017 0.049904998 0.049996048 0.05004812 0.049847003 0.050008129
0.05011506 0.049986087 0.049936 0.049928296 0.050058212 0.050022084
0.050017234 0.050021123 0.04998133 0.050053012 0.049995337 0.049892161
0.049972288 0.049870156 0.049912497 0.050001226 0.049994521 0.050054096
0.049985789 0.049859803 0.050010666 0.050060537 0.0500836 0.05009729
0.049948882 0.049941361 0.049912732 0.049987584 0.050022881 0.050038166
0.050140273 0.049982138 0.04994848 0.050077245 0.050044443 0.050024852
0.049903732 0.049997244 0.050055508 0.050049465 0.050040834 0.049866501
0.049920481 0.049911309 0.049928702 0.050045706 0.05000582 0.049941786
0.050060701 0.050079472 0.049939744 0.050017655 0.049974684 0.049898021
0.05003842 0.049905006 0.049921758 0.049975116 0.050076801 0.050066575
0.050111804 0.050081674 0.049933184 0.049954746 0.049943119 0.04992307
0.049985755 0.050068915 0.049930792 0.049984202 0.05009596 0.050070487
0.050054338 0.050046418 0.050018504 0.049955145 0.050028782 0.050017867
0.050045043 0.050025489 0.049938824 0.049977247 0.050006811 0.050141651
0.050183944 0.050053455 0.050057154 0.050017405 0.049980313 0.049919266
0.050011124 0.050121121 0.049977072 0.050000135 0.05002502 0.049977262
0.049971007 0.050124042 0.050068006 0.049965005 0.050041012 0.04998
0.049986079 0.050016001 0.050048027 0.050113 0.049960073 0.049996
0.049899004 0.049866002 0.050127 0.050044 0.049889062 0.049952999
0.050107036 0.050175 0.050055001 0.049990106 0.049949087 0.049881
0.049944006 0.049944006 0.049991999 0.049948007 0.049956053 0.050000086
0.049861003 0.05004403 0.050096005 0.049946111 0.049915008 0.049863126
0.050077096 0.050004151 0.050001316 0.050004255 0.050019432 0.050050184
0.049936458 0.049913533 0.049970355 0.0498464 0.049897559 0.050014418
0.050019577 0.050018415 0.049900077 0.049890868 0.050054632 0.050078526
0.050093457 0.05003868 0.0499322 0.049953852 0.049901996 0.049989842
0.0500728 0.050097439 0.050141413 0.049974445 0.04992234 0.050060581
0.049967598 0.049986169 0.049975067 0.050022721 0.050035745 0.050018713
0.050019115 0.049909033 0.049972724 0.04990245 0.049894731 0.050023749
0.049969085 0.049972177 0.05009567 0.050074827 0.049918879 0.049993094
0.049952615 0.04986022 0.050017867 0.049890716 0.049907211 0.049975824
0.050105426 0.050065737 0.050100029 0.050054129 0.049911536 0.049960524
0.049952403 0.049975 0.050005481 0.050034925 0.049907908 0.049988117
0.050092731 0.050045881 0.050036099 0.050079186 0.049976807 0.049957927
0.05004552 0.05002154 0.05007413 0.050033953 0.049975745 0.050059088
0.050053768 0.05011671 0.05019211 0.050137769 0.050053488 0.04999974
0.050008513 0.049971484 0.050011102 0.050146554 0.050000023 0.05001929
0.049987011 0.05000741 0.050110001 0.050087012 0.050024029 0.049996
0.050066002 0.049943015 0.049969029 0.050021 0.050024036 0.050078031
0.049995206 0.050067 0.049904 0.049875002 0.050109029 0.049977008
0.049911022 0.049964011 0.05008401 0.050177999 0.050020058 0.050058052
0.049988054 0.049858011 0.049935021 0.049935021 0.049984019 0.049987022
0.049927998 0.049958114 0.049886037 0.050040036 0.050068118 0.049932119
0.049932145 0.049859028 0.050048113 0.049944233 0.049979459 0.049992446
0.050001599 0.050057847 0.049892608 0.049932159 0.049996454 0.049833648
0.049899496 0.050003618 0.049989797 0.049973153 0.049891457 0.049940016
0.050076853 0.050097063 0.050055858 0.049964596 0.049924657 0.049974632
0.049917191 0.050021097 0.050099835 0.05012488 0.050131712 0.050010063
0.049913336 0.050020982 0.049947601 0.049939875 0.049980089 0.050053127
0.050056744 0.049988844 0.049983155 0.049937349 0.050023831 0.049919803
0.049866654 0.049988087 0.049934041 0.050013311 0.050111745 0.050051399
0.049892142 0.049919732 0.049952492 0.04987466 0.049964018 0.049878668
0.04989839 0.049963757 0.050078772 0.050020467 0.050066233 0.050050702
0.049891554 0.049973667 0.049996249 0.050014783 0.050000019 0.050031044
0.049917642 0.049995411 0.050123412 0.050033629 0.050022468 0.050078627
0.049948581 0.049987059 0.050064776 0.050065607 0.050102837 0.050072011
0.050050218 0.05011287 0.050073646 0.05008376 0.050170027 0.050167028
0.050063897 0.050011732 0.050034612 0.050043505 0.049994092 0.050171606
0.050040044 0.050015364 0.049989026 0.050020207 0.050203014 0.050070025
0.050040029 0.050024007 0.05007701 0.049930003 0.049955003 0.050007999
0.049994022 0.050029017 0.05002619 0.050133001 0.049906023 0.049919002
0.050088041 0.049937002 0.049953006 0.049966015 0.050062016 0.050133001
0.049993046 0.050132032 0.049990021 0.04985803 0.049931042 0.049931042
0.049956027 0.049979046 0.049898114 0.049952168 0.0499091 0.049992081
0.050051413 0.049930152 0.049972426 0.049877021 0.049980409 0.049895424
0.049943656 0.049977791 0.049937908 0.050057694 0.049884073 0.049953684
0.050052788 0.049843032 0.049898624 0.049960159 0.049926192 0.04992602
0.049917955 0.049983568 0.050049435 0.05007929 0.050026998 0.049926784
0.049930099 0.05001957 0.049975287 0.05004726 0.050107203 0.050123338
0.0501123 0.050062604 0.049933758 0.049997233 0.049989801 0.049895655
0.049940176 0.050078027 0.050082881 0.049951974 0.049942296 0.049966455
0.050052945 0.049941219 0.049845792 0.049963318 0.049935941 0.050021213
0.050082132 0.05001504 0.049872637 0.049838204 0.049958028 0.049919184
0.049901299 0.049863432 0.049888752 0.049947686 0.050033189 0.049953822
0.04999749 0.050043885 0.049913354 0.049989793 0.050021011 0.049996763
0.049988929 0.05006906 0.049965765 0.05000557 0.050168261 0.050043792
0.050034866 0.050074246 0.049935713 0.050033223 0.050087783 0.050122596
0.050132744 0.050115861 0.050130159 0.050149955 0.050074697 0.050048914
0.050144978 0.05016014 0.050105121 0.050049569 0.050057564 0.050118364
0.049993109 0.050167281 0.050060175 0.050028224 0.050040048 0.050018016
0.050202042 0.050077096 0.05009602 0.050019007 0.05006405 0.049955003
0.049954999 0.049995001 0.049980003 0.049990002 0.050045043 0.050154004
0.049908053 0.04998802 0.050081007 0.049938012 0.04997503 0.049973015
0.05005306 0.050072003 0.049957007 0.050171029 0.049989 0.049876019
0.049926028 0.049926028 0.049918018 0.049930055 0.049867269 0.049964178
0.049926225 0.049939122 0.05003551 0.049929198 0.050006602 0.049863096
0.049890984 0.04989174 0.049903885 0.049951129 0.049871307 0.050033946
0.049898759 0.049977798 0.050090473 0.049864803 0.049879238 0.049913261
0.049879778 0.049880967 0.049942605 0.0500075 0.049997345 0.050030541
0.050016236 0.04995482 0.049946267 0.050078254 0.050069455 0.050034519
0.050093871 0.050110914 0.050101086 0.050094966 0.049970813 0.050006438
0.05004942 0.049873859 0.049921453 0.050093744 0.05007121 0.04992415
0.049916394 0.049990326 0.05005819 0.049948432 0.049853113 0.049962193
0.04995006 0.049981169 0.050009847 0.049986482 0.049875136 0.049778275
0.049951151 0.049952574 0.049841926 0.049840808 0.049873561 0.049929257
0.049989264 0.049921602 0.049926549 0.0499954 0.049965389 0.049997084
0.050003238 0.04995323 0.049988262 0.050110329 0.050029397 0.050029442
0.050188381 0.050069515 0.050067563 0.050099492 0.049946699 0.050074644
0.050121985 0.050177831 0.050182026 0.05014576 0.050176516 0.050187334
0.050082043 0.050034121 0.050133936 0.050145168 0.050163031 0.050108477
0.050083403 0.050174255 0.050023139 0.050133061 0.05006532 0.050070044
0.050106071 0.050019015 0.050146054 0.050093044 0.050160017 0.050004028
0.050036028 0.050002001 0.049964011 0.049995009 0.049983021 0.049976014
0.05006101 0.050133042 0.049929008 0.050025184 0.050071999 0.049965087
0.049961016 0.049987018 0.05004805 0.050030012 0.049918 0.05015301
0.050004043 0.049906 0.049924999 0.049924999 0.049880013 0.049862064
0.049840305 0.049965162 0.049931403 0.04991718 0.050017424 0.049916279
0.050008718 0.049814373 0.049804419 0.049915109 0.049880199 0.049915269
0.04983671 0.049995657 0.049910426 0.049982682 0.050061587 0.049875975
0.049851526 0.049893595 0.04985965 0.04984016 0.04996239 0.050012674
0.049958367 0.049995396 0.05000978 0.050021607 0.04997848 0.050116532
0.050160039 0.049996089 0.050062638 0.050100707 0.050111886 0.050090387
0.050008204 0.050038822 0.050084379 0.049889565 0.049963724 0.050106727
0.050022535 0.049925327 0.049919333 0.049993135 0.050042421 0.049952451
0.049882315 0.049968082 0.049942303 0.049914371 0.049928386 0.049982622
0.049894419 0.049742252 0.049922977 0.049945921 0.049790747 0.049810924
0.049855504 0.049891394 0.049941968 0.049933091 0.049888458 0.049914904
0.050002709 0.049993481 0.049960855 0.04993302 0.049988747 0.050119065
0.050093871 0.050067138 0.050168395 0.050106261 0.05010432 0.050152112
0.049998857 0.050100066 0.050159276 0.050219234 0.050249565 0.050173912
0.050186876 0.05021574 0.050109517 0.050063174 0.050137769 0.050145037
0.050226659 0.050171364 0.050115224 0.050199185 0.050077159 0.050101012
0.050076243 0.050118007 0.050146081 0.05003408 0.050091039 0.050109003
0.050211024 0.050016113 0.050009005 0.050051063 0.049982116 0.050007146
0.049994174 0.049978208 0.050070189 0.050095197 0.04997303 0.050008476
0.050035998 0.049990125 0.049926016 0.050001018 0.050045047 0.050012019
0.049891017 0.050090998 0.050025083 0.049940012 0.049929019 0.049929019
0.04984501 0.049794082 0.049817264 0.049940199 0.049919575 0.049936306
0.049996387 0.049874507 0.049973033 0.049763002 0.049744692 0.049928553
0.049880743 0.049882408 0.049827304 0.049950652 0.049905278 0.049954917
0.049965151 0.049869381 0.049834386 0.049900703 0.049840096 0.049814649
0.049982477 0.050013054 0.049944483 0.049996302 0.050003108 0.050074469
0.050034337 0.050120872 0.050213337 0.049973194 0.050032455 0.050089654
0.050135843 0.050066177 0.050039407 0.050081566 0.050086394 0.049949698
0.050046958 0.050118245 0.049977798 0.049952574 0.049943306 0.049978152
0.050016474 0.04996356 0.049907327 0.049963303 0.049908515 0.04985683
0.04986731 0.049985703 0.049912639 0.049727503 0.049878828 0.049892429
0.049755443 0.049784102 0.049838115 0.049825504 0.049878381 0.049953569
0.049886361 0.049848612 0.049999911 0.049984418 0.049922347 0.049957566
0.049988873 0.050100356 0.050150458 0.050114628 0.05012279 0.050143059
0.050136823 0.050214145 0.050090127 0.050125211 0.050190281 0.050243523
0.050315909 0.050219283 0.050197866 0.050229747 0.050161656 0.050142862
0.050154466 0.05016562 0.050292235 0.050216146 0.050138071 0.050198086
0.050129093 0.050103001 0.050115038 0.050144121 0.050161026 0.050055198
0.050065 0.050118141 0.050244 0.050072253 0.050009172 0.050095394
0.050003439 0.050022554 0.050009567 0.049981706 0.050059542 0.050048504
0.050009176 0.049966637 0.049970035 0.050000105 0.049893048 0.050016023
0.050051104 0.050000034 0.049880058 0.050021023 0.05003703 0.049956039
0.049931034 0.049931034 0.049813017 0.049737107 0.049788229 0.049891304
0.049893692 0.049965549 0.049962621 0.049799036 0.049911767 0.049735084
0.049720157 0.04991325 0.04989972 0.049853958 0.049811389 0.049900524
0.049885787 0.049909119 0.049848165 0.049857974 0.049837451 0.049912877
0.049804378 0.049809273 0.050007146 0.050015692 0.049946044 0.050024658
0.050001185 0.050084863 0.050103389 0.050112057 0.050226435 0.049989115
0.050025649 0.050071824 0.050156243 0.050050568 0.05006744 0.050122861
0.050074387 0.050034057 0.050126575 0.050131574 0.049976334 0.049992107
0.049976602 0.049971506 0.049987547 0.049975961 0.049914423 0.049947936
0.049872678 0.049830388 0.049830958 0.049954973 0.049914073 0.049729139
0.049830981 0.049818162 0.049734801 0.049766563 0.049823336 0.049749009
0.049802583 0.049935166 0.049896352 0.049823064 0.04996071 0.049971655
0.049901426 0.050012369 0.050001193 0.050084468 0.050196107 0.050164018
0.050086666 0.050165545 0.050159033 0.050272919 0.050197326 0.050169136
0.050215948 0.050253335 0.050365675 0.050284408 0.050245468 0.050239246
0.050237194 0.050251361 0.050184172 0.05020313 0.05035501 0.050239
0.050143003 0.050186001 0.050161 0.05014002 0.050187062 0.050138384
0.05017304 0.050074499 0.050064106 0.050117537 0.050250113 0.050158463
0.050051745 0.05013204 0.05002008 0.050036188 0.050025232 0.049974304
0.05003307 0.049991932 0.05000744 0.049929664 0.049894229 0.049994133
0.049875159 0.050032079 0.050060224 0.049981095 0.049880125 0.049964085
0.050037004 0.049940046 0.049923014 0.049923014 0.04978003 0.049686123
0.049743269 0.04983345 0.049856786 0.04995589 0.049906369 0.049707949
0.04983696 0.049729485 0.049722116 0.049876396 0.049914259 0.049825396
0.049771253 0.049843639 0.049854126 0.049866807 0.04975773 0.049854036
0.049849771 0.049904883 0.049767569 0.04982502 0.050025627 0.050020758
0.04995364 0.050054733 0.049998712 0.050060224 0.05016277 0.050116744
0.050219283 0.050036203 0.050055619 0.050051652 0.050159287 0.050059799
0.050092828 0.050162941 0.050070677 0.050110646 0.050175019 0.050149694
0.050026599 0.050038077 0.05001647 0.049988259 0.049960021 0.049983758
0.049908869 0.049936824 0.049856987 0.049829837 0.049805917 0.049878418
0.049896702 0.04974198 0.049790401 0.049753886 0.049719859 0.049753238
0.049802437 0.049692985 0.049732842 0.049860679 0.049896404 0.049831059
0.049910158 0.049953789 0.049886115 0.050074533 0.050037943 0.050103705
0.050231516 0.050201502 0.050092548 0.050177377 0.050179016 0.050326679
0.050285332 0.050237801 0.050256588 0.050267618 0.050401963 0.050355844
0.050333913 0.050265592 0.050325468 0.050356049 0.050233014 0.050262038
0.050411109 0.050262269 0.050138284 0.05018026 0.050171308 0.05018428
0.050268624 0.050126936 0.050193612 0.050093167 0.050076846 0.050119359
0.050232001 0.050236952 0.050122902 0.05015187 0.050029024 0.050044972
0.050030105 0.049956832 0.050008807 0.049928501 0.049968988 0.049900826
0.049835682 0.049970366 0.0498694 0.050039325 0.050061349 0.049960252
0.049878228 0.049926195 0.050015066 0.04989804 0.049902 0.049902
0.049738057 0.049630169 0.0496854 0.049777608 0.049804945 0.049878348
0.049821768 0.049631216 0.049762283 0.049727939 0.049725607 0.049825158
0.04990143 0.049790096 0.049714968 0.049788952 0.04980908 0.049831036
0.049719013 0.049859807 0.049852744 0.04987435 0.049756523 0.049855269
0.050031029 0.050017636 0.0499596 0.050075777 0.049987949 0.050025739
0.050195221 0.050145179 0.050209008 0.050097723 0.050119702 0.050037794
0.05015105 0.050088145 0.050121062 0.050205935 0.050094556 0.050158635
0.050197329 0.05017205 0.050111659 0.050095424 0.050060939 0.050021432
0.049939185 0.049995869 0.049908709 0.049937628 0.049871568 0.049840026
0.049779363 0.049786773 0.049868084 0.04976058 0.049759764 0.049711287
0.049705803 0.049731698 0.049768727 0.049670003 0.049690232 0.049746856
0.049872391 0.04984013 0.049866639 0.049930584 0.049863588 0.050122593
0.050097045 0.05016211 0.050261512 0.050226137 0.05015672 0.050192367
0.050209861 0.050381221 0.050341032 0.05031614 0.05032431 0.050313655
0.050448149 0.050423834 0.050434403 0.050322115 0.050410029 0.050434023
0.050311055 0.050345577 0.050461661 0.050304089 0.050144337 0.050193332
0.050170697 0.050212327 0.050331943 0.050133031 0.050218258 0.050113384
0.050099742 0.050139841 0.05020142 0.050275218 0.050183706 0.050144911
0.050035283 0.050046012 0.050014127 0.049938474 0.049998745 0.049877319
0.049915012 0.04987241 0.049804505 0.049930044 0.049864843 0.050021943
0.050038494 0.049943533 0.049861349 0.049896311 0.049965151 0.049846027
0.049869005 0.049869005 0.049677111 0.049561329 0.049624659 0.049727876
0.049733303 0.049742084 0.049710356 0.049584705 0.04970045 0.049711309
0.049707536 0.049759518 0.049853284 0.049747091 0.049664527 0.049743079
0.049747597 0.049790222 0.049725194 0.049872488 0.049832806 0.049835365
0.04978301 0.049890626 0.05001938 0.049999729 0.049961891 0.050086152
0.049970835 0.050005507 0.050199375 0.050183054 0.05020294 0.050161574
0.050201226 0.050044678 0.050145604 0.05012368 0.050156243 0.050256707
0.050146151 0.050189205 0.050215892 0.050197162 0.050207872 0.050165035
0.050101645 0.050054036 0.049928907 0.050029121 0.049931638 0.049951103
0.049914207 0.049847957 0.049746096 0.049725793 0.049834855 0.049771588
0.049737778 0.049678244 0.049689863 0.049693737 0.049719244 0.049666584
0.04967957 0.049632821 0.049823035 0.049824875 0.04983538 0.049911067
0.049836945 0.050146893 0.050164115 0.050236367 0.050287325 0.050250642
0.050265986 0.050226834 0.050265506 0.050449062 0.05037934 0.050388165
0.050413877 0.050403789 0.05052248 0.050490104 0.050518055 0.050411019
0.050481137 0.050487295 0.05042452 0.050447725 0.050504848 0.050370324
0.050179303 0.050228372 0.050176408 0.05021568 0.050362285 0.050159931
0.050241105 0.050138384 0.050132882 0.050181177 0.050181285 0.05026279
0.050197061 0.050115451 0.05004302 0.050032567 0.049981453 0.049922645
0.049999058 0.04985055 0.049870562 0.049837653 0.049787715 0.049875222
0.049853653 0.049974885 0.049985819 0.049924865 0.049824525 0.049859408
0.049893189 0.049797017 0.049828023 0.049828023 0.049581245 0.049481701
0.049568046 0.049677446 0.049642932 0.049586251 0.049591493 0.049561247
0.049651396 0.049664725 0.049655821 0.049676307 0.049768765 0.049694926
0.04962682 0.049707845 0.049678858 0.049738675 0.049756043 0.049883261
0.049789205 0.049802445 0.049836215 0.049921717 0.049997937 0.049968395
0.049956299 0.0500862 0.049955148 0.050010502 0.050185222 0.050212897
0.050201379 0.050221398 0.050283335 0.050080255 0.05015517 0.05016239
0.050208319 0.050316028 0.050218493 0.050229419 0.050256241 0.05023104
0.050297529 0.050236922 0.050133191 0.05007793 0.04993752 0.050094228
0.049988292 0.049975213 0.049972471 0.049847797 0.049712598 0.049720492
0.049805161 0.0497691 0.049712431 0.049630936 0.049672049 0.04963959
0.049657904 0.049650606 0.049680009 0.049555138 0.049760051 0.049779288
0.049809344 0.049905431 0.049824234 0.05015431 0.050225787 0.050300241
0.050305527 0.050299674 0.050393999 0.050284654 0.05035181 0.050541319
0.050431345 0.05045709 0.050512072 0.050525188 0.05062706 0.050569091
0.050579082 0.050516434 0.050541896 0.050542109 0.050559871 0.050549444
0.050534792 0.050446872 0.050249901 0.050285079 0.050204031 0.050210416
0.05035992 0.05019483 0.050262939 0.050166458 0.050170004 0.050230425
0.050183754 0.050207704 0.050161883 0.050077997 0.050047491 0.050007854
0.049945518 0.049910724 0.049996067 0.049837317 0.049841493 0.049797442
0.049766257 0.049815603 0.049831923 0.049902856 0.049901478 0.049885143
0.049772806 0.049803503 0.049808212 0.049754031 0.049779039 0.049779039
0.049447484 0.049399257 0.049506504 0.049618449 0.049541812 0.049450845
0.049487025 0.049535621 0.04960737 0.049579453 0.049575504 0.04957632
0.049653657 0.049634833 0.049594618 0.049676202 0.049617104 0.049686994
0.049783234 0.049878318 0.049736943 0.049780071 0.049887694 0.049943935
0.049974229 0.04993498 0.049947906 0.050072066 0.04994794 0.050042924
0.050167374 0.050224587 0.050203636 0.050277986 0.050354134 0.050142303
0.050183192 0.05020925 0.050285403 0.050382979 0.050301716 0.050297432
0.050329834 0.050286267 0.050370779 0.050301265 0.050162658 0.050102893
0.049974434 0.050182879 0.050075646 0.050017156 0.050036248 0.049838722
0.049687527 0.049762085 0.049781464 0.049751535 0.049673926 0.04955668
0.049645133 0.049573705 0.04959742 0.049601473 0.049657952 0.049525246
0.049708609 0.049718652 0.049781241 0.049916815 0.049842473 0.05015929
0.050270863 0.050341871 0.050324257 0.050386019 0.050516527 0.050370481
0.050463721 0.050660819 0.050528266 0.050543293 0.050607223 0.050656006
0.050754108 0.050663833 0.050632942 0.050620586 0.050611518 0.050621022
0.050687533 0.050631791 0.050548553 0.050522018 0.050345 0.050361324
0.050265413 0.050219424 0.050336137 0.050220996 0.050288729 0.050198987
0.050198998 0.050273769 0.050203267 0.050132494 0.050103363 0.050045993
0.05003991 0.049979165 0.049915679 0.04989991 0.049978048 0.049813632
0.049814705 0.049750272 0.049727961 0.049762838 0.04979755 0.049815603
0.049796481 0.049819391 0.049715217 0.049721643 0.04972326 0.049712081
0.049713045 0.049713045 0.049284708 0.049318694 0.049423907 0.049543694
0.049440838 0.049351469 0.04940943 0.049486812 0.04954984 0.049460705
0.049478576 0.049466562 0.049521681 0.04956321 0.049553547 0.049635697
0.049570195 0.049647138 0.049784686 0.049846802 0.049691956 0.049761362
0.049914028 0.049951494 0.049954858 0.049911853 0.049939234 0.050048098
0.049953245 0.050093263 0.050154734 0.05022157 0.050210904 0.050334722
0.050410807 0.050222848 0.050228368 0.050270427 0.050387181 0.05045924
0.050394353 0.050393417 0.050432809 0.050375622 0.050437771 0.050356291
0.050207566 0.05015368 0.050050881 0.050274987 0.050177068 0.050086129
0.050094966 0.049828883 0.049677055 0.049819808 0.049763054 0.04972719
0.0496195 0.049459618 0.049597941 0.04949924 0.049548585 0.049515609
0.049589328 0.049525045 0.049687523 0.049661312 0.049752735 0.049939271
0.049895752 0.050174516 0.050298534 0.05037253 0.050355989 0.050499834
0.050620694 0.05048592 0.050589401 0.050800335 0.05068443 0.050666001
0.050708048 0.050784476 0.050889075 0.0507733 0.050697092 0.050714813
0.050700415 0.050719514 0.050783645 0.050686922 0.050559536 0.050588492
0.050448108 0.050457634 0.050362151 0.050254814 0.050306156 0.050231084
0.050319955 0.05023028 0.050216172 0.050294634 0.05022011 0.050056834
0.050053962 0.050021481 0.050014347 0.049953654 0.049888909 0.049885027
0.049934879 0.049764331 0.049768269 0.049690776 0.04967878 0.049716949
0.049747225 0.049721081 0.049683537 0.049732734 0.049656704 0.049614843
0.049645353 0.049662203 0.049621053 0.049621053 0.049114678 0.04923173
0.04930909 0.049442552 0.049345896 0.049277559 0.049349219 0.04940404
0.049466185 0.049322549 0.04937597 0.049355201 0.049391642 0.049484815
0.049495138 0.049576398 0.049531501 0.049622159 0.049745534 0.049781408
0.049660761 0.049736481 0.049900297 0.049944084 0.04993685 0.049898937
0.049933951 0.05002249 0.049967095 0.050144996 0.050155994 0.050212517
0.050224308 0.050394285 0.050453529 0.0503112 0.050291032 0.050344907
0.050503239 0.05054725 0.050501853 0.050501555 0.050552107 0.050499573
0.050514579 0.050414 0.050288312 0.050249174 0.050172415 0.050355807
0.050275866 0.050184198 0.050143063 0.049835261 0.049690567 0.049864631
0.049744964 0.049708076 0.049557246 0.04935864 0.049529493 0.049413957
0.049512468 0.049412142 0.049478639 0.049521849 0.04969462 0.049624573
0.049733024 0.049962077 0.049973324 0.050208464 0.050320398 0.050415397
0.050420102 0.050626539 0.050718751 0.050634891 0.050719254 0.050949786
0.050886031 0.050825179 0.05083384 0.050915685 0.051023208 0.050893504
0.050781637 0.050805379 0.050811 0.050822604 0.050839093 0.050730105
0.050590299 0.050648179 0.050550278 0.050574109 0.050482094 0.050306771
0.050286945 0.05022981 0.050347071 0.05025541 0.050225984 0.050288424
0.050216015 0.049992848 0.050023947 0.049994748 0.049975693 0.049928058
0.049855635 0.04986266 0.049861949 0.049693145 0.049689334 0.049616154
0.049627796 0.049667172 0.049674567 0.049617335 0.049580272 0.049636252
0.049592059 0.049497094 0.049575489 0.049598362 0.049499054 0.049499054
0.048961375 0.049125347 0.049163889 0.049305495 0.049249757 0.049205869
0.049276367 0.049283616 0.049352325 0.049189739 0.049269222 0.049249083
0.049280304 0.049404826 0.049428996 0.049495719 0.049481962 0.049598947
0.049662661 0.049689617 0.049635805 0.049691934 0.049847972 0.049918257
0.049918156 0.049890984 0.049928498 0.050007287 0.049985502 0.05018175
0.050170418 0.050213095 0.050241582 0.050454181 0.05048658 0.050400589
0.050375313 0.050428692 0.05062183 0.050648186 0.050629478 0.050607193
0.050674085 0.050650243 0.050616052 0.05049888 0.050419375 0.050393101
0.050333194 0.050422538 0.050362855 0.050298214 0.050176624 0.049879573
0.049732164 0.049885262 0.049720973 0.049697936 0.04949414 0.049267489
0.049441081 0.049313363 0.049474303 0.049309019 0.049354427 0.04948483
0.049698152 0.049607687 0.049724825 0.049972724 0.050063793 0.050259657
0.050354172 0.050487712 0.050524577 0.050760664 0.050830103 0.050818838
0.050845589 0.051102329 0.051103044 0.051012468 0.050994094 0.051064204
0.051160917 0.051024117 0.050896917 0.050907928 0.050932936 0.050917558
0.050866585 0.050780378 0.050661933 0.050713204 0.050650202 0.050699219
0.050595801 0.050355632 0.050292283 0.050228707 0.050355498 0.050273649
0.050233252 0.050254628 0.050179262 0.049936343 0.050000798 0.049954362
0.049933154 0.04989012 0.04981089 0.049828984 0.049761552 0.049617898
0.049588755 0.049525045 0.049578007 0.04959774 0.049566425 0.04950244
0.049502574 0.049534932 0.049512144 0.049383394 0.049505614 0.049516469
0.049358051 0.049358051 0.048842087 0.048994824 0.049005359 0.049120579
0.049135145 0.049121633 0.049161296 0.049129345 0.049219064 0.049074579
0.049158473 0.049143475 0.049190141 0.049330365 0.049367499 0.049401522
0.049406141 0.049561508 0.049551595 0.04958972 0.049600422 0.049617589
0.04976093 0.049862042 0.049889684 0.04987688 0.049912769 0.05000928
0.049995694 0.050189834 0.050196461 0.0502306 0.050262611 0.050507594
0.050513931 0.050485842 0.050482076 0.050517846 0.050736699 0.050759729
0.050773434 0.050706014 0.050797563 0.050813906 0.050738968 0.050626274
0.050600037 0.050570942 0.05051443 0.050482936 0.050441962 0.050408702
0.050200991 0.049974192 0.049810585 0.04988537 0.049680684 0.049690347
0.049432948 0.049184896 0.049340785 0.049202204 0.049417276 0.049208101
0.049247909 0.049402237 0.049660731 0.049605157 0.049727261 0.049968213
0.050154038 0.050324976 0.05041964 0.050595343 0.050669458 0.050910868