# vtk DataFile Version 3.0
axinsert(project(???,0,L2),2)
ASCII
DATASET STRUCTURED_POINTS
DIMENSIONS 256 1 1
ORIGIN 0 0 0
SPACING 1 1 1
POINT_DATA 256
SCALARS nrrd31629 float
LOOKUP_TABLE default
0 0 0 0 0 0 0 0 0 0 0 0 0 0 0 0 0 0 0 0 0 0 0 0 0 0 0 0 0 2.4494898e-06
1.9261361e-05 0.00013557654 0.00095072866 0.006323745 0.039022289 0.2155316
0.97689831 2.2971117 1.4383175 1.5382895 1.3549396 0.94187713 1.1588857
1.5646337 1.822845 1.7570791 1.5247153 1.802642 1.7555808 1.6461856
2.0404036 2.476613 2.0955303 1.6252968 1.2954689 1.1041421 0.99880421
0.93641853 0.8956719 0.8670038 0.84493542 0.82643217 0.8098076 0.79437965
0.78014636 0.76664376 0.75398773 0.74211049 0.7309435 0.72041273 0.71043712
0.70095801 0.69192749 0.68329787 0.67505813 0.66720867 0.65975267
0.65272427 0.6459409 0.63962674 0.63346964 0.62768024 0.62209249 0.61669552
0.61148673 0.60640901 0.60133421 0.59584177 0.58996767 0.58464277 0.5804882
0.57766187 0.57544404 0.57328802 0.57128906 0.56897795 0.56509709
0.56183076 0.55747145 0.55239481 0.54730749 0.54202765 0.53654397
0.53051436 0.52461237 0.51849502 0.51420987 0.51130199 0.50932252
0.50749856 0.50527292 0.50354999 0.50429267 0.50996614 0.52055752
0.53223228 0.53711152 0.53008175 0.51271772 0.48869774 0.46929014
0.49916929 0.57284921 0.60572189 0.61351907 0.62649763 0.64556283
0.66025662 0.66025662 0.63962716 0.61064154 0.59273696 0.59212273
0.60578734 0.60384387 0.53173685 0.36926758 0.2704846 0.28515264 0.33913949
0.35314053 0.33902627 0.3139652 0.29770917 0.29280487 0.29162025 0.29124382
0.29174632 0.29391745 0.29814011 0.30400032 0.31174049 0.32019696
0.32887971 0.33547914 0.33915833 0.34003392 0.33836877 0.33682033
0.33902657 0.34489039 0.35561907 0.37161103 0.39103174 0.41492781
0.44559288 0.48056468 0.51940286 0.55849892 0.59761429 0.63846201
0.68268716 0.72955441 0.77714241 0.82180959 0.86026198 0.89028579
0.91025174 0.91996437 0.92205924 0.91488063 0.89941305 0.8768332 0.84873635
0.81603092 0.78058547 0.74228197 0.69935268 0.64673835 0.58544171
0.53016716 0.49072346 0.45912474 0.4340868 0.41359746 0.37815848 0.32085854
0.23668052 0.12884241 0.041060075 0.0048768134 0.00044996888 3.6304271e-05
2.8284271e-06 0 0 0 0 0 0 0 0 0 0 0 0 0 0 0 0 0 0 0 0 0 0 0 0 0 0 0 0 0 0 0
0 0 0 0 0 0 0 0 0 0 0 0 0 0 0 0 0 0 0 0 0
