# vtk DataFile Version 3.0
axinsert(project(permute(???,2,0,1),0,L2),2)
ASCII
DATASET STRUCTURED_POINTS
DIMENSIONS 128 256 1
ORIGIN 0 0 0
SPACING 1 1 1
POINT_DATA 32768
SCALARS nrrd29544 float
LOOKUP_TABLE default
0.050038014 0.049990013 0.050014019 0.050025001 0.050026 0.049958058
0.049950093 0.049987137 0.04997208 0.05006114 0.050045025 0.049997035
0.050037008 0.049994186 0.050041009 0.049977154 0.049950037 0.050012998
0.050006099 0.050074063 0.050018203 0.04995409 0.049958002 0.049993034
0.050002005 0.049977168 0.049993012 0.049985144 0.050004005 0.050000016
0.050030109 0.049999095 0.050027065 0.050065119 0.049996115 0.049994331
0.049927078 0.049988002 0.050080076 0.050018132 0.049963161 0.049951002
0.050049033 0.049997449 0.049982134 0.049977198 0.049908113 0.049995214
0.050034225 0.050065197 0.050026026 0.050019048 0.050009381 0.049941018
0.049996 0.049971003 0.04997801 0.050029222 0.050015002 0.050016034
0.050046027 0.049996052 0.050002106 0.049995035 0.049949013 0.050013009
0.050030008 0.049951121 0.049918093 0.050006159 0.050015062 0.050011102
0.050008014 0.049993008 0.050059583 0.050029237 0.049993999 0.049995005
0.049957 0.049986128 0.049991004 0.050006267 0.049988002 0.049996175
0.050013021 0.049998045 0.049991038 0.049993228 0.049991105 0.050017476
0.049986027 0.049977258 0.049986161 0.050021347 0.050010081 0.050031114
0.050018001 0.050030198 0.049979083 0.049961064 0.050033115 0.04999752
0.049995467 0.050039049 0.049973078 0.04997601 0.050030027 0.050039012
0.050005175 0.05000104 0.049991999 0.049934231 0.049971405 0.050021004
0.049988039 0.050004095 0.049977005 0.050009392 0.050029006 0.049996082
0.050021 0.050009999 0.049992029 0.04997905 0.050017018 0.050002087
0.050014228 0.050014228 0.050074052 0.049971018 0.050047211 0.050088361
0.049974065 0.049903009 0.049912121 0.050030041 0.050003011 0.050058246
0.050031211 0.049968001 0.050094273 0.04999502 0.049950179 0.049988884
0.049950004 0.050016403 0.050035097 0.050112136 0.050057411 0.049871039
0.049914572 0.0500121 0.049992196 0.050024398 0.049956001 0.049965709
0.050020009 0.050024278 0.050090007 0.049986117 0.05001701 0.050114263
0.05004124 0.049957059 0.049938388 0.050025102 0.050032094 0.050003093
0.049946342 0.04992703 0.050035104 0.049952455 0.05005727 0.049978044
0.049800273 0.049999014 0.050001163 0.050077468 0.050069176 0.050112288
0.050057005 0.049876168 0.049963035 0.050002553 0.04994702 0.050029412
0.050076041 0.050009079 0.050065123 0.050013177 0.050002169 0.049915075
0.049907766 0.050059117 0.050071739 0.049962081 0.049856082 0.049984999
0.050039187 0.050005011 0.050013378 0.049927067 0.050073575 0.05012833
0.049929291 0.049975608 0.049947258 0.049972653 0.050013125 0.050003521
0.050004363 0.050014321 0.050009165 0.049991388 0.049949102 0.049955428
0.050006043 0.05008826 0.050002001 0.049916252 0.049957052 0.05006443
0.050027009 0.049976252 0.050062124 0.050026186 0.050011564 0.050005
0.050150096 0.049934112 0.049934156 0.050032031 0.049994439 0.04997908
0.050047092 0.050111003 0.050027002 0.049937002 0.049971104 0.049908005
0.049917031 0.050044999 0.050020047 0.050039053 0.049913999 0.050037999
0.050058048 0.05000503 0.050034132 0.05001609 0.050079037 0.049994238
0.049953185 0.049940005 0.050011013 0.050011013 0.050024044 0.049973011
0.050065055 0.050077017 0.049871072 0.049941029 0.049982015 0.050049014
0.050083086 0.049958088 0.049943186 0.049986001 0.050014075 0.050012264
0.049845103 0.050021481 0.0500081 0.049953546 0.050090324 0.050004177
0.050056983 0.049902115 0.049942669 0.050026115 0.049923625 0.050112616
0.049950197 0.050021626 0.050067026 0.050018344 0.050067071 0.049978547
0.049946103 0.049983013 0.050104868 0.049969655 0.050100554 0.050074007
0.049865484 0.049993291 0.050006349 0.049978118 0.049945179 0.0499513
0.05009111 0.049973372 0.049905293 0.050021026 0.04991214 0.050018229
0.050077196 0.050118327 0.050078269 0.049907319 0.049894124 0.050025877
0.049963143 0.04995022 0.050108455 0.049992036 0.049991522 0.050045695
0.050029464 0.04987504 0.049935564 0.050018143 0.050058302 0.050103892
0.049991447 0.04996106 0.049993612 0.049973294 0.049966842 0.04988952
0.049989156 0.050134003 0.049909379 0.049998943 0.050004844 0.049977697
0.049993768 0.049957313 0.050049283 0.050051864 0.050020956 0.05001162
0.049967643 0.050030325 0.050033029 0.050070144 0.050041188 0.049893066
0.049932219 0.050101098 0.050046086 0.049933009 0.050029069 0.049955111
0.050087418 0.050092999 0.050111234 0.049934126 0.049937155 0.049941033
0.050053585 0.050069004 0.049952053 0.050120167 0.050038077 0.049920101
0.050029021 0.049999066 0.049908027 0.050002001 0.050055008 0.050057001
0.049963001 0.050013181 0.049976032 0.050035004 0.050005011 0.050041016
0.05017202 0.050012074 0.049878001 0.049894039 0.050000008 0.050000008
0.049977005 0.049972061 0.050070006 0.050085064 0.049848024 0.04994709
0.05002502 0.049984999 0.050064314 0.04998406 0.049933109 0.050016057
0.049912106 0.049985643 0.049899235 0.049996201 0.049974386 0.049936373
0.05012342 0.04995935 0.050086658 0.049936228 0.049920321 0.050026394
0.049877241 0.050123662 0.049951378 0.050042707 0.050082497 0.0500177
0.050034456 0.049972877 0.049924478 0.049915891 0.050089926 0.05001219
0.050162517 0.050056845 0.04987793 0.050035406 0.050017569 0.050003562
0.049944278 0.049975328 0.050061204 0.049924415 0.049960606 0.050036184
0.049908496 0.050027225 0.050058421 0.050076481 0.050066598 0.049920753
0.049856588 0.050004821 0.049918592 0.049933545 0.050101593 0.050002847
0.049944576 0.050034363 0.05007796 0.049906876 0.049878608 0.049954813
0.050090294 0.050134163 0.050078541 0.049952168 0.049934924 0.04996885
0.049950734 0.049895588 0.049970523 0.050086744 0.049955316 0.050031081
0.050006028 0.049984194 0.049939644 0.049922843 0.050074764 0.050069556
0.050052471 0.050043225 0.050029933 0.050146736 0.050086275 0.049993251
0.050034784 0.049917214 0.049945299 0.050121035 0.050087359 0.049976002
0.049975235 0.049907058 0.050109446 0.050103042 0.050011415 0.04998238
0.049999095 0.049900111 0.050063178 0.050146151 0.049901005 0.050091185
0.050056137 0.049976151 0.050125007 0.050020002 0.049876001 0.049954023
0.050025009 0.050058119 0.050061006 0.049970031 0.049920045 0.050032999
0.049985066 0.050094012 0.050209004 0.049975 0.049914062 0.049908075
0.049976021 0.049976021 0.049945999 0.049985159 0.05004802 0.050065402
0.049857028 0.049948234 0.050077014 0.049915053 0.04998922 0.050039336
0.049947072 0.04999521 0.049840305 0.049959615 0.04997338 0.049961276
0.049963765 0.049945325 0.050098743 0.049959682 0.050087646 0.049988866
0.049888201 0.050047893 0.049871113 0.050066847 0.049945444 0.049992111
0.050063096 0.050035477 0.050032016 0.049983364 0.049941812 0.049907941
0.050052833 0.05005122 0.050141599 0.050009873 0.049951039 0.050074816
0.049966779 0.050054584 0.049997397 0.049983732 0.050067376 0.049870603
0.049969818 0.050041564 0.049915787 0.050024565 0.050014831 0.050073937
0.050037708 0.049904309 0.049886022 0.050005935 0.049864046 0.049950499
0.050070833 0.050006125 0.049925774 0.04998621 0.050081458 0.049950778
0.049829181 0.049916547 0.050109696 0.050079487 0.050099555 0.049930427
0.049897078 0.050008517 0.049990471 0.049920585 0.049974047 0.050043479
0.050004844 0.050026964 0.050000202 0.05001384 0.049917527 0.049943995
0.050081722 0.050092004 0.050065331 0.050089695 0.050047792 0.050175637
0.050151754 0.049955819 0.050047833 0.050006434 0.050009176 0.05009304
0.050077446 0.049979128 0.049969614 0.049911018 0.050085463 0.050115094
0.049962364 0.05004229 0.05003209 0.049909208 0.050028007 0.050186329
0.049938001 0.050018087 0.05005816 0.050017104 0.050147064 0.050031185
0.049866002 0.04995916 0.05000101 0.050053176 0.050135002 0.049969014
0.049917001 0.050025016 0.049968004 0.050120007 0.050206002 0.049947053
0.049959004 0.049929 0.049959 0.049959 0.049926013 0.050011136 0.049988054
0.049996652 0.049892038 0.049965356 0.050101023 0.049884319 0.049945034
0.050052501 0.049967069 0.049928386 0.049813498 0.049958486 0.049990527
0.049912538 0.049966052 0.049942587 0.050041176 0.049983267 0.050046992
0.05005689 0.049914405 0.050060235 0.049893361 0.050011914 0.049917638
0.049923439 0.050029244 0.050035927 0.050041314 0.050013963 0.049977988
0.049921319 0.050043844 0.050065324 0.050075863 0.049987491 0.05001596
0.05009051 0.049903005 0.050092291 0.050068811 0.04998631 0.050086748
0.049838059 0.049969919 0.05004498 0.049908951 0.050015148 0.049992032
0.050096221 0.050016884 0.049865574 0.049919263 0.049994327 0.049843479
0.049962506 0.050029397 0.05001438 0.049935311 0.049930044 0.050024178
0.049950533 0.049816489 0.049888831 0.050092012 0.050047502 0.050078299
0.049917337 0.049916346 0.050035156 0.050032303 0.049940471 0.049981896
0.050006479 0.050012771 0.050001647 0.050025173 0.050049741 0.049925324
0.050013442 0.050074998 0.050124574 0.050087374 0.050128955 0.050033964
0.050155107 0.050205175 0.049986497 0.050104588 0.050088607 0.050080176
0.050050177 0.050025456 0.049950454 0.050032645 0.049949035 0.050051395
0.050138079 0.049929239 0.050079204 0.050025113 0.049967322 0.050027009
0.050170168 0.049993008 0.049957037 0.050051101 0.050021071 0.050093126
0.050081439 0.049885999 0.050015211 0.050024111 0.050011076 0.050158001
0.049990058 0.049919035 0.050014067 0.049988005 0.050101999 0.050162006
0.049973104 0.049968045 0.049940109 0.049971048 0.049971048 0.049911007
0.05002404 0.049913011 0.049930412 0.049925026 0.049960289 0.050086115
0.049906556 0.049941007 0.050017618 0.049972147 0.049857732 0.049819522
0.049951591 0.049965732 0.049867891 0.049953111 0.049934171 0.04998032
0.049994919 0.050007381 0.050105516 0.049977005 0.050051626 0.049935151
0.049992044 0.049880207 0.04988654 0.050004397 0.050027747 0.050024427
0.050040331 0.050014134 0.049940731 0.050045989 0.050053786 0.050006259
0.049998883 0.050057016 0.050077215 0.049876329 0.050090339 0.050119571
0.04999584 0.050106384 0.04984558 0.049981058 0.050039288 0.049890179
0.050011534 0.050007202 0.050094265 0.049998458 0.049839579 0.049924601
0.049971741 0.049844965 0.049955718 0.049977146 0.050015915 0.049965404
0.049878486 0.049945276 0.049919102 0.049813125 0.049863234 0.050062645
0.050056178 0.050038502 0.049934313 0.049975909 0.05001476 0.050046701
0.04995764 0.049976178 0.049968988 0.049993142 0.050000537 0.050079644
0.050087873 0.049947884 0.050077267 0.050069846 0.050170194 0.050132837
0.05014924 0.050036598 0.050139889 0.050227489 0.050060872 0.050182566
0.050125822 0.050116424 0.050020628 0.049987577 0.049950715 0.050111357
0.049978178 0.050044261 0.050169099 0.049903125 0.050091106 0.049996082
0.05003928 0.050085012 0.050124023 0.050012019 0.049936019 0.050037023
0.050007068 0.050020054 0.050151385 0.04993001 0.050060097 0.050068062
0.049951006 0.050150003 0.050016038 0.049912021 0.049986064 0.050042003
0.050074007 0.05011002 0.05004105 0.04995909 0.049934108 0.049991064
0.049991064 0.049902 0.050012998 0.049860016 0.049901079 0.049934026
0.049901135 0.050043389 0.049957521 0.049934097 0.049960766 0.0499494
0.049823221 0.049840543 0.04991797 0.049937997 0.049853306 0.049918007
0.049923912 0.049939264 0.049982313 0.049982619 0.050111812 0.050021797
0.050030392 0.049985245 0.049993679 0.049861196 0.049890827 0.050006848
0.050030597 0.04997769 0.05005832 0.050040375 0.049950052 0.050033435
0.050029352 0.04996185 0.050026026 0.050082397 0.05004967 0.049892742
0.050057113 0.050131306 0.050010208 0.050123047 0.049887083 0.050008353
0.050027542 0.049878508 0.050009552 0.050032526 0.050056368 0.04998422
0.049839549 0.049907099 0.049945947 0.049851567 0.049936902 0.049909908
0.049984474 0.049984984 0.049847528 0.04988746 0.049881689 0.049812514
0.049846664 0.050027758 0.050058968 0.050005209 0.049963698 0.050022576
0.049975041 0.050042521 0.049982227 0.049960855 0.049937636 0.049977452
0.050041817 0.050146013 0.050114959 0.049975518 0.050106216 0.050083876
0.050228503 0.050185569 0.050154474 0.050082322 0.05016147 0.050212674
0.050134923 0.05024983 0.050124153 0.050114922 0.050023217 0.05000167
0.050010744 0.050155137 0.049990464 0.050074093 0.050197165 0.049920045
0.050099019 0.049965013 0.050083067 0.050154004 0.050088 0.050004009
0.049945999 0.050012998 0.050001044 0.049977999 0.050185129 0.049988005
0.050058998 0.050096001 0.049915012 0.050132018 0.050048999 0.04990501
0.049950004 0.050093006 0.050077025 0.050069001 0.050104 0.049942058
0.049919035 0.049998034 0.049998034 0.049899016 0.049980011 0.049841136
0.049904998 0.049910087 0.04980506 0.049983751 0.049995478 0.049900524
0.049911927 0.04990685 0.049823612 0.049858827 0.04987051 0.049917486
0.049871869 0.049873106 0.049904626 0.049930446 0.04995358 0.04995792
0.05008328 0.050025579 0.050000682 0.050021295 0.049997147 0.049870294
0.049923696 0.050036509 0.050046049 0.049943365 0.050080255 0.050044954
0.049934585 0.05001539 0.050005894 0.049944751 0.050054133 0.050096232
0.050033014 0.049938317 0.050024051 0.050115656 0.050023369 0.050122425
0.049932592 0.050044764 0.050020933 0.049891829 0.05000652 0.050035842
0.050011728 0.049982592 0.049846597 0.049883567 0.049917992 0.049857065
0.049917039 0.049830586 0.049918607 0.04996942 0.049842503 0.049859416
0.049846273 0.049818441 0.049848098 0.049972326 0.050030138 0.049995784
0.049975146 0.05002192 0.049955927 0.050036147 0.050004117 0.049955733
0.049932808 0.049984314 0.050096128 0.050202817 0.050127655 0.0500043
0.050127901 0.050129343 0.050282378 0.050235234 0.050169386 0.050156541
0.05020722 0.050177697 0.050179642 0.050284196 0.050111391 0.050106224
0.050069284 0.050060492 0.050097514 0.05016204 0.05000753 0.050123002
0.050207179 0.049986005 0.050124001 0.049961027 0.050089024 0.050183028
0.050070029 0.049998004 0.049967043 0.049979042 0.050011002 0.049978096
0.050156999 0.050042 0.050036117 0.050099023 0.049922124 0.050110005
0.050090045 0.049905032 0.04992507 0.050108004 0.050107054 0.050045051
0.05011601 0.049915016 0.049911998 0.049993008 0.049993008 0.04989605
0.049932007 0.049836278 0.049917001 0.049864296 0.049714092 0.04991002
0.049995668 0.049857277 0.049892131 0.049860321 0.049824875 0.049858488
0.049821198 0.049897388 0.049907688 0.049837861 0.049879279 0.049944278
0.049925074 0.049919698 0.050043169 0.049992565 0.049966335 0.050034434
0.050000317 0.049904339 0.049967151 0.0500733 0.050050441 0.049958579
0.050100613 0.050012305 0.049903728 0.050007004 0.049995817 0.049945038
0.050074667 0.050100666 0.05003963 0.049995203 0.05002141 0.050098825
0.050035588 0.050101567 0.049963027 0.050076075 0.050023507 0.049929999
0.050008714 0.050007917 0.049979296 0.050002459 0.04984181 0.0498637
0.049896095 0.049851112 0.049889319 0.049764052 0.049842421 0.04992203
0.049847856 0.049835104 0.049817827 0.049824834 0.049857777 0.04989389
0.049978413 0.050004892 0.049958088 0.049981825 0.049966909 0.050031096
0.050012 0.049980123 0.049962416 0.05001967 0.050129756 0.050243825
0.050148699 0.050030638 0.050173908 0.050202988 0.05031503 0.050284378
0.050215997 0.050223161 0.050252143 0.050158586 0.050199118 0.050286282
0.050120167 0.050127935 0.050151672 0.050132167 0.050169159 0.050152998
0.050037228 0.050173052 0.050194044 0.050067022 0.050166037 0.050005175
0.050086357 0.050162211 0.050052129 0.050015103 0.049989291 0.049940214
0.050033122 0.050001316 0.050084263 0.050078999 0.050023466 0.050092001
0.049953382 0.050084028 0.050129186 0.049919136 0.04991331 0.050084092
0.050132114 0.050028145 0.050074045 0.049892999 0.049912017 0.049977001
0.049977001 0.049875066 0.04988401 0.049820278 0.049902055 0.049813673
0.049656298 0.049824197 0.049958248 0.049828004 0.049903523 0.049816769
0.049800295 0.049829427 0.049767163 0.049871754 0.049929876 0.04982565
0.049856119 0.049956087 0.049910247 0.049871303 0.050006609 0.049946263
0.049934082 0.05002616 0.050011761 0.049955737 0.050013006 0.050093632
0.050030805 0.050020546 0.050105039 0.049953766 0.049879685 0.050011177
0.050006624 0.049960736 0.050082892 0.050107658 0.050072696 0.050054554
0.050060384 0.050098334 0.050053202 0.050080903 0.049987365 0.050092231
0.050035078 0.049977008 0.050019123 0.049967851 0.049957767 0.050034236
0.049827211 0.049849458 0.049881406 0.049830809 0.04984184 0.049729142
0.049776323 0.049858704 0.04983896 0.049794521 0.049804345 0.04981875
0.049850795 0.049811684 0.049922384 0.050011802 0.049932558 0.049925793
0.050000515 0.050027426 0.050010424 0.050037559 0.050013628 0.050079592
0.050139256 0.050276153 0.050201178 0.050060123 0.050244179 0.050278198
0.050331675 0.050339822 0.050286569 0.05026352 0.050277039 0.05018127
0.050217588 0.050278861 0.050163548 0.050189327 0.05024508 0.050193001
0.050211001 0.050145041 0.050083999 0.050215345 0.050175056 0.050119236
0.050207183 0.05009146 0.050103009 0.050111733 0.050024457 0.05005347
0.050011847 0.049917646 0.050048783 0.05002467 0.049995974 0.050091069
0.050031923 0.050078128 0.04997867 0.050051209 0.050154373 0.049943298
0.049907584 0.050038233 0.050132234 0.050002161 0.050004076 0.049887005
0.049913082 0.049949009 0.049949009 0.04982505 0.049852151 0.049791161
0.049831301 0.049764097 0.04963278 0.049727391 0.049900267 0.04981951
0.049922317 0.049774501 0.049753241 0.049778558 0.049703598 0.049841374
0.049918603 0.049828324 0.049840733 0.049943928 0.049910672 0.049829915
0.049974836 0.049909025 0.049907099 0.050001837 0.050032336 0.050013151
0.050049458 0.050089233 0.04999499 0.050088618 0.050093211 0.049901295
0.049882486 0.050014719 0.050031498 0.049996939 0.050082795 0.050120886
0.050120257 0.05010334 0.050124031 0.050114587 0.050079521 0.050088886
0.050031856 0.050100524 0.050052535 0.050021086 0.050031651 0.049940929
0.049938943 0.050055273 0.049824774 0.049838092 0.049867947 0.049804483
0.04978238 0.049717791 0.049733594 0.049789768 0.049799349 0.049740579
0.049808901 0.04979359 0.049810935 0.049746491 0.049867988 0.049994696
0.049918171 0.049882244 0.050042491 0.050031617 0.050011009 0.050117292
0.050070677 0.050156254 0.050151955 0.050315406 0.050279573 0.050103191
0.050320148 0.050330427 0.050351262 0.050401852 0.050360173 0.050292864
0.050288688 0.050236721 0.050263193 0.05029323 0.050234046 0.050269999
0.050324071 0.050236151 0.050241295 0.050146338 0.050154407 0.050250102
0.05016071 0.050131939 0.0502287 0.050189029 0.050143924 0.050060637
0.049998272 0.050093316 0.050028723 0.049926452 0.050046105 0.050029218
0.049917027 0.050071474 0.050049443 0.050049566 0.049985886 0.050020583
0.050156593 0.049967457 0.049897812 0.049993321 0.050109435 0.049959138
0.049934123 0.049895 0.049908135 0.049910013 0.049910013 0.049750037
0.04983642 0.049763098 0.04970663 0.049705379 0.049622517 0.049621694
0.049839575 0.049818918 0.049910691 0.049730889 0.049708944 0.049723938
0.049635578 0.049803153 0.04987314 0.049824327 0.049822755 0.049904611
0.049918775 0.049810652 0.049945187 0.049888972 0.049890041 0.04997253
0.050051581 0.050062198 0.050070152 0.050074797 0.049960054 0.050125241
0.050082657 0.049889814 0.049919251 0.050012812 0.050061196 0.050059803
0.050092354 0.050144132 0.050170437 0.050140478 0.050185248 0.050136723
0.050112579 0.05013673 0.050109822 0.050120391 0.050082039 0.050057538
0.050039243 0.049942434 0.049920987 0.050050631 0.04985141 0.049828887
0.049848538 0.049788315 0.049730729 0.049704157 0.049708251 0.04971784
0.049728166 0.04969028 0.049810495 0.049754757 0.049747899 0.049702041
0.049811382 0.049952291 0.049914431 0.049861763 0.050082795 0.050049212
0.050027769 0.050200086 0.050127685 0.050236892 0.050190873 0.050367203
0.050357264 0.050172433 0.050396226 0.05036281 0.050394651 0.050468929
0.050426707 0.050339315 0.05030521 0.050301142 0.050339002 0.050346017
0.050311152 0.050340321 0.050376587 0.050278697 0.050278135 0.050173264
0.050238814 0.050280578 0.0501533 0.050119475 0.050224014 0.050267186
0.050190236 0.050031912 0.049985863 0.05011275 0.050031945 0.049960606
0.050025769 0.050014023 0.04986836 0.050024483 0.050050098 0.050001241
0.049980186 0.049999122 0.050128967 0.049982656 0.049877051 0.049959395
0.050076701 0.049900148 0.049877208 0.049893003 0.049892124 0.049867008
0.049867008 0.049663045 0.049818654 0.049742188 0.04956593 0.049623508
0.049600374 0.049515158 0.049779769 0.049806494 0.049845599 0.049682997
0.049680237 0.049674902 0.049569067 0.049749322 0.049807731 0.049800526
0.04978735 0.049846958 0.049922362 0.04981751 0.049919929 0.049881943
0.049886603 0.049943108 0.050053127 0.050087899 0.050074667 0.050065313
0.049939413 0.050114475 0.05008816 0.049928434 0.04998346 0.050020922
0.050090384 0.050139625 0.050123874 0.050171796 0.050215594 0.050174158
0.050232954 0.050159536 0.050148018 0.050212193 0.050208326 0.050165135
0.050130833 0.050090581 0.050042968 0.04996939 0.049916256 0.050021145
0.049905989 0.049824972 0.049826957 0.049787283 0.049705941 0.049670588
0.049685072 0.049647387 0.049637143 0.049652938 0.049784098 0.049715508
0.049687508 0.049670335 0.049755663 0.049897365 0.049902 0.049863491
0.050115742 0.050082348 0.050064161 0.050271418 0.05019369 0.050318733
0.050261866 0.050423305 0.050419178 0.050280977 0.050478533 0.050397307
0.050470877 0.050540309 0.050488222 0.05041302 0.050349005 0.050364062
0.050429221 0.050429661 0.050374009 0.050389294 0.050411571 0.05033182
0.050336633 0.050236221 0.050316315 0.050304815 0.050155859 0.050104931
0.050205577 0.050311353 0.050219279 0.050026633 0.049989317 0.050103724
0.050018761 0.049998146 0.049992461 0.04999426 0.049853958 0.049957164
0.050016068 0.049940128 0.049968805 0.049987826 0.050079629 0.04998
0.049843412 0.049932558 0.050036982 0.049836203 0.049832352 0.049863033
0.04986408 0.049825002 0.049825002 0.049581077 0.049768727 0.049716607
0.049458288 0.049522646 0.04955313 0.049417831 0.049716435 0.049761456
0.049734663 0.04963338 0.04965869 0.049629577 0.049506914 0.049672205
0.049731247 0.049756315 0.049733985 0.049785689 0.049912456 0.049836069
0.049900014 0.049874771 0.049896035 0.049922507 0.050030202 0.050092861
0.050067782 0.050063796 0.04993045 0.050071862 0.050106812 0.049999446
0.050065469 0.050060619 0.050123237 0.050213687 0.050180867 0.050204784
0.050258249 0.050223846 0.050273314 0.050192811 0.05018945 0.050296709
0.050300177 0.050228622 0.050200105 0.050130185 0.050055824 0.0500075
0.049940921 0.049992528 0.049970374 0.049832255 0.049816072 0.049789343
0.049703263 0.049617447 0.04964285 0.049580656 0.049546015 0.04963002
0.0497187 0.049682725 0.049648851 0.049643692 0.049711861 0.049842145
0.049865056 0.049873147 0.050131693 0.050129671 0.050115567 0.050328214
0.050275657 0.050402865 0.050356768 0.050482869 0.050470907 0.050427508
0.05057798 0.050457835 0.050577264 0.050617028 0.050556999 0.050505098
0.05043235 0.05043491 0.050517209 0.05051915 0.050417602 0.050421868
0.050448313 0.050398801 0.050424095 0.050322406 0.050373755 0.05032175
0.050169308 0.050103247 0.050191652 0.050321784 0.050217394 0.050034054
0.050001614 0.050076298 0.049994517 0.050013337 0.049956389 0.049982261
0.049861912 0.049881373 0.049950629 0.049874455 0.049948972 0.049978737
0.050022673 0.049954608 0.049798969 0.04989792 0.049986281 0.049772315
0.049793553 0.049798094 0.049823064 0.049787 0.049787 0.049507111
0.049660709 0.049660429 0.049406845 0.049424011 0.049479723 0.049339749
0.049642622 0.049673859 0.049603425 0.049581535 0.049621973 0.049576927
0.049449001 0.049570814 0.049647063 0.049702894 0.04967672 0.049731504
0.049887057 0.049841825 0.049878184 0.049859434 0.04991211 0.049914233
0.049990594 0.050083429 0.050061982 0.050060462 0.049925175 0.050022818
0.050123751 0.050074853 0.050156321 0.050140303 0.050167605 0.050271235
0.050247692 0.050240729 0.050306637 0.050301991 0.050329763 0.050252534
0.050250001 0.050383013 0.050374266 0.050297204 0.050286859 0.050184913
0.050092813 0.050042298 0.049995888 0.049986709 0.050025526 0.049852628
0.049815919 0.049775593 0.049696751 0.049559996 0.049578484 0.049520697
0.049467705 0.049614742 0.049627323 0.049661152 0.049636174 0.049622342
0.049683098 0.049794283 0.049812045 0.049877539 0.050132781 0.050186571
0.050172146 0.050373964 0.050372418 0.050492089 0.050467439 0.050556671
0.050540138 0.050592791 0.050690532 0.050549362 0.050705004 0.050703049
0.050641276 0.050602634 0.050553288 0.050528668 0.050596256 0.050594307
0.050452996 0.050459411 0.050498351 0.050476123 0.050529063 0.050409753
0.050406002 0.050337587 0.050191745 0.050128624 0.050194323 0.050304648
0.050183792 0.050039496 0.05001479 0.050046764 0.049968671 0.049995627
0.049925238 0.049972434 0.049864341 0.049812935 0.049876042 0.049807604
0.049909867 0.049960036 0.049962025 0.049908534 0.04974772 0.049849622
0.049911629 0.049712487 0.04975279 0.049708154 0.049764078 0.049752004
0.049752004 0.049437109 0.049496703 0.049559183 0.049389593 0.049343709
0.049392343 0.049282927 0.049558796 0.049549568 0.049477808 0.049516376
0.049553387 0.049509652 0.049393483 0.04945302 0.049553707 0.049645048
0.049628232 0.049688295 0.049851015 0.049813494 0.049839191 0.049831349
0.049922679 0.049921904 0.049954172 0.050067607 0.05006028 0.050046757
0.049917527 0.049987584 0.050127037 0.050133593 0.050241698 0.05024315
0.050229441 0.050317463 0.050311185 0.050282568 0.050368443 0.05040649
0.050414678 0.050351057 0.050341386 0.050471529 0.050438929 0.050361458
0.050385065 0.05026044 0.050163917 0.050072677 0.050064798 0.050017919
0.050065521 0.049884077 0.04981577 0.049732201 0.049663335 0.049509358
0.049503077 0.049462341 0.049407329 0.049602076 0.049532078 0.049646512
0.049638834 0.049602456 0.049665831 0.049753271 0.049763568 0.049881864
0.050127007 0.050254717 0.050228834 0.050420124 0.05047683 0.050586093
0.050591841 0.050662309 0.050651025 0.050756898 0.050812174 0.05066403
0.050841127 0.050807454 0.050740175 0.050699789 0.05070195 0.050651245
0.050665427 0.050658315 0.050504565 0.050519664 0.050566237 0.050562494
0.050629139 0.050475311 0.050424386 0.050360937 0.050226606 0.050180729
0.050208379 0.050264973 0.050126452 0.050039541 0.05002619 0.050031692
0.049949497 0.049951438 0.049899772 0.049945898 0.049837545 0.049759787
0.049816422 0.049737733 0.049843557 0.049918953 0.049894575 0.049844809
0.049696609 0.049785715 0.049804024 0.049650777 0.049696997 0.049607214
0.049685124 0.049715009 0.049715009 0.049361069 0.049299803 0.0494183
0.049359407 0.049276616 0.049301241 0.049241289 0.049472515 0.049405389
0.049364213 0.049426306 0.049451593 0.049428631 0.049335871 0.049335767
0.049456164 0.049577393 0.049591988 0.049659472 0.049806111 0.049742632
0.049768031 0.049785618 0.049918368 0.049944878 0.049939305 0.050047152
0.050058283 0.050025169 0.049908634 0.049977016 0.050119162 0.050171252
0.050310008 0.050343115 0.050311211 0.050374337 0.05037671 0.050333198
0.050443716 0.050521515 0.050523907 0.050483387 0.050465181 0.050567888
0.050516732 0.050433517 0.050493736 0.050360773 0.050264183 0.050111994
0.0501284 0.050077353 0.050095521 0.049919643 0.049801812 0.049668211
0.049598794 0.049461246 0.049437657 0.049408164 0.049360849 0.049583785
0.049452063 0.049627822 0.049641322 0.049579248 0.049646672 0.049720317
0.049742937 0.0498996 0.050136421 0.050333414 0.050287686 0.05047949
0.050582912 0.050682586 0.050732013 0.050805628 0.050813001 0.050910205
0.05094 0.050795145 0.050976638 0.050936501 0.050854847 0.050806943
0.050862767 0.050793812 0.050737843 0.050724864 0.05058993 0.05060637
0.050647236 0.050660353 0.050704602 0.050507363 0.050442532 0.050393399
0.050271399 0.050240938 0.050220225 0.050213624 0.050062414 0.05004067
0.050035175 0.050030399 0.049931657 0.049897812 0.049870141 0.049886242
0.049773745 0.049719028 0.049780395 0.049663451 0.049755935 0.049843583
0.049809221 0.049767382 0.049649589 0.049707055 0.049667418 0.049581263
0.049619108 0.049505293 0.049592171 0.049667004 0.049667004 0.049273025
0.049107026 0.049253758 0.049277168 0.049204305 0.049207505 0.0492015
0.049385983 0.049259063 0.049256258 0.049299672 0.049324907 0.049333893
0.049270786 0.049237154 0.049363829 0.049493521 0.049555339 0.049641468
0.049754001 0.04963468 0.049664348 0.049725417 0.049890127 0.049969185
0.049944859 0.050019421 0.050043087 0.050001476 0.04990714 0.049992897
0.05011775 0.050194733 0.050352089 0.050417721 0.050410435 0.050464027
0.050460078 0.050397042 0.050532013 0.050627679 0.050640292 0.050631687
0.050604895 0.050672133 0.050624549 0.050528549 0.050612465 0.050486941
0.050385494 0.050178379 0.050180491 0.050148737 0.050120436 0.049947139
0.049767949 0.049598143 0.049517799 0.04940759 0.049385931 0.049355552
0.04931616 0.049550466 0.049388364 0.049589355 0.049627196 0.04954705
0.049625032 0.049704373 0.049753275 0.049942255 0.050175522 0.050425414
0.050365068 0.050567538 0.050689124 0.050782733 0.050889172 0.05098084
0.05102038 0.051064 0.051078148 0.050934974 0.051110622 0.051093347
0.050986383 0.05093338 0.051024135 0.05094146 0.050828625 0.050807554
0.050706342 0.050708216 0.050730806 0.050767895 0.050748441 0.050515797
0.050473295 0.050433613 0.050321992 0.050282557 0.050213989 0.050164789
0.050011639 0.05004891 0.050033551 0.050028339 0.049908929 0.04984685
0.049822196 0.049795665 0.049680721 0.049671754 0.049754992 0.049590833
0.049663235 0.049732596 0.049701888 0.049678173 0.049598552 0.049608253
0.049519666 0.049497928 0.049513124 0.049408395 0.049498208 0.049599003
0.049599003 0.049173005 0.048944354 0.049084008 0.049135871 0.049112301
0.049101759 0.049152039 0.049294882 0.049109366 0.049135096 0.049143489
0.049180821 0.049220368 0.049198203 0.049173757 0.049289662 0.049393039
0.049503509 0.049626727 0.049693331 0.049506225 0.049548566 0.049658492
0.04983335 0.049973182 0.049957015 0.049983762 0.050004289 0.049978226
0.049927499 0.050038505 0.05013841 0.050215341 0.050365098 0.050456639
0.050514944 0.050589856 0.050574135 0.050481424 0.050630599 0.050717495
0.050752465 0.050779037 0.050739225 0.050777685 0.050766345 0.050659776
0.050742939 0.050634392 0.050519999 0.05028427 0.050236717 0.050220206
0.050138872 0.049962897 0.049727622 0.049541917 0.049442872 0.049339965
0.04932924 0.049298801 0.049260892 0.04948663 0.049327828 0.049508244
0.049584024 0.049512252 0.049604934 0.04971562 0.049789798 0.050008349