# vtk DataFile Version 3.0
axinsert(project(???,0,L2),2)
ASCII
DATASET STRUCTURED_POINTS
DIMENSIONS 256 1 1
ORIGIN 0 0 0
SPACING 1 1 1
POINT_DATA 256
SCALARS nrrd77287 float
LOOKUP_TABLE default
0 0 0 0 0 0 0 0 0 0 0 0 0 0 0 0 0 0 0 0 0 0 0 0 0 0 0 0 0 2.4494898e-06
1.8814888e-05 0.00013587494 0.00094929396 0.006313907 0.038975086
0.21530922 0.97615796 2.2967734 1.4379783 1.5380781 1.3550612 0.94213766
1.1589541 1.5647266 1.823155 1.7575022 1.5252024 1.802766 1.7554078
1.6458845 2.0403476 2.4767377 2.0953727 1.6250777 1.2956214 1.1048661
1.000406 0.93914878 0.89921659 0.87062752 0.84798312 0.82873935 0.8112821
0.79511583 0.77975541 0.76548362 0.75198829 0.7394889 0.72793311 0.71721768
0.70726573 0.69802582 0.68945062 0.68147349 0.67408657 0.6666469 0.65945989
0.65242457 0.64552623 0.63876253 0.63210672 0.62538296 0.61858124
0.61260384 0.6073246 0.60300601 0.59935302 0.59604371 0.59211999 0.58798653
0.58353519 0.57861239 0.57326233 0.56777245 0.56215221 0.55688363
0.55246109 0.54876941 0.5455507 0.54314941 0.54146957 0.54088569 0.54110187
0.54216236 0.54395074 0.54477197 0.54145265 0.53661126 0.53120071
0.52921164 0.53325129 0.53647172 0.52851766 0.51433778 0.48808524
0.46052179 0.44402736 0.46024048 0.52317297 0.58664072 0.67016071 0.731556
0.76214361 0.77654725 0.75335479 0.69883043 0.64666444 0.57942981
0.57942981 0.54549748 0.4656499 0.3601073 0.29930109 0.36520705 0.4266029
0.43707249 0.41748402 0.38057935 0.33481979 0.29913357 0.28195837 0.2752713
0.27174261 0.26917395 0.26785737 0.26802096 0.27008975 0.2739976 0.27930322
0.28616261 0.29446524 0.30405736 0.31445199 0.32488495 0.33506361
0.34465432 0.35324776 0.36081988 0.36749917 0.37366837 0.37950176
0.38544327 0.39332992 0.40570155 0.42660204 0.45700186 0.49271366
0.52990055 0.56945425 0.61153424 0.65704525 0.7048341 0.75134969 0.79403532
0.83146709 0.86166644 0.88502598 0.90245897 0.912251 0.91356814 0.90646362
0.89150268 0.86913162 0.84037685 0.80580032 0.76156503 0.70591956
0.64289594 0.58279949 0.53284168 0.49391833 0.45981953 0.42976809
0.40225241 0.36836949 0.31972778 0.25592408 0.16701436 0.074297041
0.015754079 0.0014851748 0.00012758527 9.5393925e-06 0 0 0 0 0 0 0 0 0 0 0
0 0 0 0 0 0 0 0 0 0 0 0 0 0 0 0 0 0 0 0 0 0 0 0 0 0 0 0 0 0 0 0 0 0 0 0 0 0
0 0 0 0
