# vtk DataFile Version 3.0
axinsert(project(permute(???,2,0,1),0,L2),2)
ASCII
DATASET STRUCTURED_POINTS
DIMENSIONS 128 256 1
ORIGIN 0 0 0
SPACING 1 1 1
POINT_DATA 32768
SCALARS nrrd39475 float
LOOKUP_TABLE default
0.050014641 0.049980082 0.049991582 0.050080001 0.050038248 0.050011154
0.049981274 0.049936008 0.050013337 0.049982999 0.049976155 0.049980067
0.050047494 0.050019197 0.049985159 0.050038133 0.050014373 0.04993926
0.049967449 0.050010297 0.050021484 0.049974326 0.04989671 0.049975846
0.049960583 0.050099116 0.050043054 0.050014645 0.050071668 0.050039999
0.049979031 0.049986143 0.049958002 0.049935844 0.049955476 0.050042629
0.050111663 0.049982697 0.049996488 0.050006006 0.050036237 0.049974028
0.049931169 0.050002772 0.050042078 0.050036531 0.049959101 0.049983833
0.050022021 0.050062589 0.050037108 0.050007999 0.049959119 0.049932558
0.049975153 0.050038435 0.050017316 0.049952101 0.050002459 0.050049361
0.049991097 0.049980007 0.050007451 0.050004333 0.049965356 0.050044145
0.050000586 0.049989223 0.049989466 0.049996998 0.050026033 0.05003801
0.049940363 0.049993671 0.050027005 0.050026454 0.049967032 0.049950279
0.050009124 0.050009012 0.050020099 0.050007369 0.050005138 0.050053
0.049942158 0.049970999 0.050018039 0.050064068 0.050060369 0.050048642
0.049981464 0.049928151 0.05000452 0.049986433 0.049885016 0.049986068
0.050080128 0.050003614 0.049992025 0.050057508 0.049995337 0.049947299
0.050008092 0.050018344 0.050032485 0.050017156 0.049980808 0.049935594
0.049961999 0.050022073 0.050028034 0.050026 0.049972262 0.049971025
0.049986012 0.049996022 0.049956225 0.050040647 0.050006088 0.049936578
0.050005488 0.050057005 0.050011009 0.049991112 0.049974363 0.050043121
0.050036151 0.050036151 0.04996819 0.050059348 0.049959008 0.050235011
0.05018501 0.050006084 0.049902 0.049767226 0.049913429 0.049976483
0.050005078 0.049972054 0.050032035 0.050063439 0.049989764 0.050190032
0.050009064 0.049828678 0.049823254 0.049954664 0.049990695 0.049939439
0.049723644 0.049870677 0.050102394 0.050073948 0.05011164 0.050023314
0.050159857 0.05013112 0.05003405 0.049952202 0.049858488 0.049930558
0.049891558 0.049967576 0.05028918 0.050136968 0.049929451 0.050068732
0.050035503 0.050063882 0.049849004 0.049932636 0.050084837 0.050022822
0.049964961 0.049977217 0.05013318 0.050072052 0.050127588 0.050049353
0.049888387 0.04979508 0.050047755 0.050063003 0.050007463 0.049872279
0.050042298 0.050115362 0.050110321 0.049989041 0.050040547 0.049937628
0.049916547 0.050016232 0.049951624 0.050067998 0.049972013 0.049956158
0.050062571 0.050109208 0.050003823 0.049860012 0.050179098 0.050142299
0.049935289 0.049869787 0.050014 0.050153524 0.050088204 0.049909454
0.050095465 0.050091967 0.049889326 0.049955972 0.05010923 0.050143898
0.050026122 0.050172765 0.050050661 0.049842764 0.049910534 0.049961962
0.04978155 0.049880609 0.050028127 0.049993876 0.050097223 0.050201226
0.049947303 0.050009895 0.049998056 0.050089259 0.049946416 0.04996527
0.05001941 0.049874045 0.04981282 0.049968071 0.050071381 0.050017208
0.049975548 0.049922094 0.049975019 0.050062202 0.049878411 0.050042029
0.050102636 0.04986323 0.050015319 0.05010156 0.050099038 0.049976461
0.049919046 0.050028838 0.049938861 0.049938861 0.049957123 0.050159998
0.050032165 0.050092123 0.050203782 0.049954105 0.049691882 0.049757089
0.049806781 0.050026398 0.050173577 0.050021444 0.049943455 0.050026748
0.049949437 0.050107285 0.049988884 0.049914818 0.049728267 0.049902596
0.049942423 0.04998092 0.049864434 0.049772136 0.050197154 0.049981188
0.05001761 0.049983062 0.050050408 0.050220788 0.05009108 0.049917929
0.049820088 0.050017547 0.050072491 0.049936112 0.05009513 0.050205041
0.049921654 0.050059814 0.05003731 0.050031304 0.050012227 0.050020333
0.050037488 0.049938228 0.050034918 0.050120998 0.050158594 0.049869012
0.049961593 0.050223794 0.049947247 0.049899008 0.050140556 0.049991045
0.04999331 0.049895082 0.049925677 0.050104622 0.050293498 0.049988061
0.050037753 0.050091092 0.049947295 0.049905226 0.049940675 0.050237104
0.050000019 0.049968001 0.050063878 0.050172109 0.050151456 0.049780142
0.050131705 0.050098166 0.050129101 0.049844623 0.050075024 0.050393242
0.049986046 0.049803291 0.050159819 0.050028693 0.050015755 0.049902778
0.050052628 0.050130632 0.049963333 0.050055265 0.050164014 0.049953766
0.049807023 0.049903065 0.049954005 0.04985714 0.049895458 0.050010361
0.050174523 0.050071195 0.049975 0.050126486 0.049993347 0.050097156
0.049864519 0.04992643 0.050080657 0.049922217 0.049829543 0.049849696
0.050016485 0.049953967 0.049917124 0.049899258 0.049919058 0.050108019
0.049920123 0.050019223 0.050121028 0.049938012 0.050084013 0.049955685
0.050205074 0.050054614 0.049859121 0.049848367 0.049818177 0.049818177
0.050061002 0.050311182 0.050055429 0.049855202 0.050165117 0.049998999
0.049487006 0.049748119 0.04975 0.049992196 0.05031801 0.05003193
0.049961012 0.050023645 0.049941145 0.049857531 0.050103553 0.050021093
0.049593009 0.049934115 0.050022017 0.050137613 0.049994193 0.049688838
0.050058089 0.050022233 0.049922001 0.049932051 0.050073028 0.050343189
0.050044846 0.049889166 0.049840271 0.049978178 0.050331999 0.050086346
0.049735442 0.050017167 0.049967144 0.050123096 0.050066713 0.049903031
0.050196312 0.050149638 0.050040413 0.049860373 0.050048012 0.050230246
0.050151113 0.04974886 0.049758282 0.050375268 0.050126102 0.049998201
0.050032001 0.049922232 0.050055072 0.049941752 0.049755003 0.050106145
0.050248019 0.049879108 0.050115589 0.050250124 0.049958423 0.049763154
0.049998842 0.050385129 0.05007023 0.050014079 0.050079003 0.050109118
0.050267372 0.049771003 0.049908347 0.049961437 0.050310258 0.049773492
0.050200578 0.050628323 0.049928017 0.049887117 0.050158519 0.04983335
0.050063625 0.049934234 0.049891021 0.050078306 0.050000846 0.05002426
0.050087132 0.049969852 0.049812786 0.0498612 0.049945615 0.050040781
0.05007828 0.049949028 0.050134845 0.049919061 0.050028801 0.050117001
0.050146349 0.050045863 0.049970254 0.049927179 0.050033204 0.049921304
0.049902033 0.049755067 0.050002016 0.049942177 0.049785011 0.049910031
0.049849086 0.050088007 0.049997058 0.049875237 0.049959034 0.049887799
0.050302543 0.050005034 0.050282232 0.050179131 0.049739361 0.049755093
0.049868137 0.049868137 0.050237648 0.050355203 0.050020222 0.049762364
0.050067488 0.050092537 0.049584657 0.04971398 0.04961092 0.049918015
0.050305143 0.050033379 0.050058044 0.050063081 0.050017335 0.04970501
0.050322104 0.050144054 0.049519546 0.049905133 0.050256096 0.050244078
0.049992885 0.049606092 0.049877238 0.050103322 0.049800634 0.050021064
0.050286934 0.050425164 0.050125446 0.049932405 0.049883306 0.049928859
0.050454564 0.050214771 0.049456827 0.049767759 0.050120916 0.050275616
0.049954306 0.049988449 0.050192762 0.050093673 0.050110571 0.049823817
0.05012146 0.050202526 0.050124254 0.049936309 0.049852036 0.050235655
0.050251275 0.049875569 0.049889922 0.04986586 0.050009511 0.049922336
0.049694538 0.050078213 0.050066173 0.049745165 0.050151207 0.050039005
0.049927402 0.049587008 0.049994994 0.050479017 0.050160166 0.050164055
0.050005239 0.04983272 0.050334945 0.049745318 0.049824473 0.049835734
0.050204106 0.049768209 0.050293066 0.050760578 0.050033849 0.050129663
0.050015867 0.049594287 0.050005946 0.050266072 0.049747791 0.049896017
0.050027393 0.050142579 0.049923543 0.049894121 0.049923118 0.049934279
0.049859978 0.050157528 0.050297558 0.049835239 0.050088342 0.050059453
0.050050199 0.05002284 0.050344422 0.050018229 0.050000604 0.05005433
0.049991723 0.049940445 0.049790017 0.049822282 0.050048701 0.050017554
0.04978909 0.049918227 0.049861468 0.050141003 0.050082352 0.0495902
0.049724128 0.049760215 0.050432891 0.050209168 0.050245024 0.050237328
0.049654648 0.049915228 0.050041169 0.050041169 0.05027926 0.05019417
0.05009621 0.049896061 0.049796499 0.05002797 0.050016973 0.049788821
0.049510784 0.049987037 0.05014617 0.04996907 0.050096162 0.050076243
0.050051507 0.049822494 0.050434086 0.050331373 0.049736381 0.049746227
0.050502598 0.05014522 0.049946886 0.04957439 0.049803969 0.050149314
0.049708534 0.050240323 0.050437193 0.050353937 0.050286163 0.050066948
0.05002325 0.050002437 0.050435066 0.050170619 0.049416542 0.049593091
0.050329 0.050272379 0.049727757 0.050287802 0.049975783 0.049962997
0.050258804 0.049875248 0.05014348 0.050100371 0.050085671 0.05026409
0.05012266 0.049939804 0.050151333 0.049644221 0.049838781 0.049741175
0.049758952 0.049793441 0.049723256 0.05002832 0.050025113 0.049701266
0.04993717 0.049692467 0.049881626 0.049458206 0.049846694 0.050470971
0.050232332 0.050292205 0.049885336 0.04961247 0.050162062 0.049754862
0.049914852 0.049776208 0.0499526 0.049980972 0.050151698 0.050746959
0.050141033 0.050270647 0.049728833 0.049571443 0.049932968 0.050526243
0.049801461 0.049771748 0.04999933 0.050111756 0.049928114 0.049841858
0.050044533 0.050032876 0.050002962 0.050089393 0.050238088 0.049865231
0.050075766 0.050349277 0.050120398 0.050003029 0.050362352 0.049973253
0.049866363 0.050236933 0.049990259 0.049979806 0.049661838 0.050021771
0.050067302 0.05017234 0.049971431 0.049863752 0.049940925 0.050138351
0.050194651 0.049479052 0.049688227 0.049917243 0.050279204 0.050185643
0.050097447 0.05023209 0.049683318 0.050185006 0.050137043 0.050137043
0.050068382 0.050084971 0.050289754 0.050082132 0.049552668 0.049901258
0.050468024 0.049925257 0.049502376 0.049997788 0.050027177 0.049859308
0.050083417 0.05016708 0.050015796 0.050015997 0.050263278 0.050495002
0.050162226 0.049675237 0.050583199 0.049923472 0.049935825 0.04969443
0.049845327 0.050167095 0.049908988 0.05041286 0.050371509 0.050151795
0.050254948 0.050148595 0.050220594 0.050182395 0.050391171 0.050075747
0.049631745 0.04961329 0.050426103 0.050011225 0.049575672 0.050476532
0.049811907 0.049955346 0.050356906 0.050039295 0.049956635 0.050018873
0.050067708 0.050459765 0.050244801 0.049815409 0.049916059 0.049538419
0.049769845 0.049589403 0.049538277 0.049569421 0.049765386 0.049898393
0.050070304 0.049761046 0.049550053 0.049533214 0.049878288 0.049476154
0.049654029 0.050222948 0.050251655 0.050191239 0.049809821 0.049601298
0.049801551 0.049925618 0.04993812 0.049828779 0.04979495 0.050317872
0.04988854 0.050514299 0.050203405 0.050224822 0.049482919 0.049718637
0.049935039 0.050325438 0.05004821 0.04991715 0.049945664 0.049915805
0.050177433 0.049729317 0.050007489 0.050107297 0.050289989 0.050085679
0.050011776 0.050068542 0.050097268 0.050423447 0.050262902 0.050183203
0.050203774 0.049881473 0.049793746 0.050177127 0.050005499 0.050009131
0.049708959 0.050158877 0.050025005 0.05027714 0.050114498 0.049834684
0.050079942 0.049935102 0.05021698 0.049795881 0.049912076 0.050314005
0.049949937 0.049971692 0.050011046 0.050239135 0.049833059 0.050276253
0.050109088 0.050109088 0.04990679 0.050207116 0.050334636 0.050112225
0.049662467 0.049939044 0.05051728 0.049943715 0.049528353 0.049807541
0.050022013 0.04987612 0.050041661 0.050345294 0.050099716 0.050073836
0.04987403 0.050515674 0.050446548 0.049863316 0.050484091 0.049817685
0.050022162 0.050012823 0.049985934 0.050199557 0.050322969 0.050320029
0.050152801 0.050039705 0.050048206 0.050099935 0.050279107 0.050388031
0.050412416 0.049975134 0.049930185 0.0499213 0.050343983 0.04978719
0.049648613 0.0503444 0.04989865 0.049976174 0.050261162 0.050235741
0.049746417 0.050081376 0.050085433 0.050346773 0.050107859 0.049871448
0.049811862 0.049671285 0.049617819 0.049512308 0.04944611 0.049333654
0.049708396 0.049629264 0.050035536 0.049815062 0.049279019 0.049525797
0.049875006 0.049438693 0.049542062 0.049818709 0.050124735 0.049980842
0.049733419 0.049749292 0.049542475 0.050123528 0.049808372 0.049956828
0.049792551 0.050498258 0.049830351 0.050029952 0.050175048 0.050118621
0.049606536 0.049814396 0.04997332 0.049980558 0.050224006 0.050199121
0.04998007 0.049832903 0.050398581 0.049548633 0.049876891 0.050151251
0.050414354 0.050311897 0.049952555 0.050265398 0.050138287 0.050228603
0.05030103 0.050449692 0.050091837 0.049783178 0.04986617 0.049939055
0.050105602 0.050193354 0.049848665 0.050116073 0.049962875 0.050171241
0.050067451 0.049981758 0.050238967 0.049802173 0.050077826 0.050223123
0.050085027 0.050512355 0.049788006 0.049875092 0.050115071 0.050161615
0.050094172 0.050226226 0.050054487 0.050054487 0.050049599 0.050336149
0.050164554 0.050057076 0.050042458 0.050004557 0.050208267 0.049843058
0.049703009 0.049684167 0.050090034 0.050050247 0.049919911 0.050332583
0.050313853 0.050146464 0.049693018 0.050417591 0.050388362 0.050166525
0.050314516 0.049921192 0.050169166 0.050404727 0.050166786 0.050239403
0.050492615 0.050004963 0.050018098 0.050115 0.049966395 0.05006149
0.050151106 0.050547615 0.050436717 0.049872693 0.050186373 0.050326865
0.050138853 0.049828809 0.04996879 0.050097421 0.050062884 0.049834594
0.05002572 0.050297778 0.049707629 0.050315812 0.05012558 0.050032929
0.04989462 0.049961593 0.049830645 0.049903795 0.049455956 0.049468227
0.049298439 0.049184587 0.049498487 0.049341332 0.049902298 0.049778096
0.049242374 0.049491081 0.049664062 0.049223587 0.049489278 0.04954477
0.049801264 0.049887788 0.049638037 0.049930174 0.049488962 0.050082959
0.049722679 0.050070763 0.049856212 0.050323959 0.049996741 0.049566921
0.04998336 0.050043579 0.049999941 0.049887713 0.049933095 0.049912911
0.050145455 0.050356198 0.050182302 0.049870055 0.050379451 0.049602117
0.049939975 0.050175898 0.050242458 0.050576627 0.050076589 0.050320007
0.050224222 0.050020881 0.050188258 0.050538119 0.050095305 0.049760945
0.050038315 0.049940165 0.050241247 0.050498493 0.050021008 0.049952995
0.049935862 0.049928691 0.049920514 0.050223049 0.05025759 0.049987875
0.049956232 0.050284319 0.050116397 0.050312094 0.049914405 0.050019324
0.050265104 0.050014 0.050388981 0.050247516 0.049968999 0.049968999
0.050271049 0.050268024 0.050051227 0.050147004 0.050350122 0.04996445
0.04987517 0.049814016 0.050043099 0.04978757 0.050201871 0.050264999
0.049851611 0.050066967 0.050375331 0.050262839 0.050021295 0.050354399
0.050188296 0.050380819 0.050145522 0.05011116 0.050275818 0.050568931
0.05024454 0.050214034 0.050328698 0.049895648 0.05015298 0.050170779
0.050138704 0.05017345 0.050025683 0.050606038 0.050355561 0.049951393
0.050411865 0.050489001 0.049915873 0.049980696 0.050339833 0.0500568
0.050138015 0.049610503 0.049885757 0.050237007 0.049778331 0.050445952
0.050069463 0.04977721 0.049853828 0.050054993 0.049689151 0.049965128
0.049311478 0.049364034 0.049123392 0.049218468 0.0492361 0.049166176
0.049652651 0.049663063 0.049290732 0.04925704 0.049301706 0.049138527
0.049421053 0.049426053 0.049460713 0.049846604 0.049656186 0.049931239
0.049526073 0.049868237 0.049787011 0.050081905 0.04987514 0.049954105
0.050110552 0.049446538 0.049773864 0.049986754 0.050164457 0.050026931
0.04984146 0.05001308 0.049948845 0.050297696 0.050367836 0.049796648
0.050281715 0.050108455 0.050270353 0.050250847 0.049998958 0.05062063
0.050179508 0.050331816 0.050353922 0.049892314 0.050141845 0.050420295
0.05004346 0.049907669 0.050195951 0.05020228 0.050253768 0.050603274
0.050238594 0.049851935 0.04992282 0.049846631 0.049866661 0.05032523
0.050056648 0.050214078 0.050149493 0.050103139 0.05021156 0.050032999
0.050028492 0.050324421 0.050269324 0.049993582 0.050555207 0.050249569
0.049860783 0.049860783 0.050310038 0.050093006 0.050100736 0.05036572
0.050453596 0.050016943 0.04965302 0.049888361 0.050291009 0.049984246
0.050255168 0.050462343 0.049991503 0.04984425 0.050232437 0.050230902
0.050572515 0.050411168 0.050171413 0.050437041 0.049984694 0.050283067
0.050267968 0.050348867 0.050133649 0.050151803 0.050202265 0.050167516
0.050385308 0.050170515 0.050424252 0.050376076 0.050077274 0.050456218
0.050222024 0.050273441 0.05056306 0.050383367 0.049897674 0.050013218
0.05046745 0.05014582 0.050150435 0.049559012 0.049951162 0.050184313
0.049894247 0.050205618 0.049802497 0.049651403 0.049993102 0.050026488
0.049348053 0.049739953 0.049156245 0.049298164 0.04914321 0.04948435
0.049057413 0.049045637 0.049259018 0.049465023 0.049227014 0.048949294
0.049103357 0.049374495 0.049364079 0.049318295 0.049254 0.049657661
0.049752176 0.049699865 0.049558859 0.049727298 0.049789224 0.049959656
0.049805697 0.049720354 0.050079726 0.049652454 0.049735211 0.049936108
0.050003611 0.050163701 0.04983313 0.050010294 0.049914259 0.050074205
0.050275993 0.049659058 0.050305221 0.050721485 0.050545115 0.050375402
0.050019793 0.050439764 0.050228953 0.050466992 0.050442211 0.049850214
0.050236207 0.050215088 0.049916644 0.050187647 0.050176289 0.050309267
0.050222632 0.050458472 0.050396565 0.049909253 0.049918655 0.050064605
0.049958047 0.050174464 0.049924966 0.050129119 0.050589234 0.050171036
0.050320148 0.049947999 0.050051536 0.050532039 0.050208174 0.050122399
0.050524309 0.050094008 0.049852189 0.049852189 0.050289184 0.049966969
0.050217018 0.050398774 0.050489012 0.050175294 0.049597289 0.049923666
0.050336335 0.050249524 0.050170556 0.050574735 0.050168511 0.049867555
0.050192032 0.050090663 0.050841253 0.050472829 0.050357062 0.050399531
0.049903903 0.050431196 0.050145354 0.050011776 0.050000276 0.050140478
0.050245013 0.050415687 0.050411597 0.05040196 0.050627209 0.050534561
0.050277654 0.050157443 0.050164171 0.050560672 0.050576732 0.050295711
0.050151389 0.049976975 0.050293911 0.050061941 0.050124202 0.049731392
0.050081726 0.050068811 0.050077405 0.049850114 0.049495403 0.049617805
0.050042342 0.049682416 0.049131025 0.049411304 0.049070999 0.049317464
0.049289085 0.049703013 0.049037527 0.048954602 0.048863791 0.049208395
0.049063459 0.048907027 0.04913301 0.04953713 0.049328305 0.049214061
0.049109608 0.049389806 0.049682297 0.049445003 0.049599268 0.049679458
0.04958947 0.049792912 0.049734257 0.04966148 0.049988411 0.0499341
0.049858354 0.049876601 0.0499264 0.050262567 0.049952492 0.049909912
0.050111014 0.049871407 0.049917083 0.049746402 0.050358616 0.050902866
0.050469514 0.050422709 0.050309516 0.050278217 0.050295729 0.050638232
0.050440066 0.050015561 0.050289616 0.049992763 0.049914461 0.050448176
0.050067116 0.050198894 0.050318982 0.050363041 0.05033328 0.050054327
0.049974125 0.050296504 0.050068405 0.049909145 0.050178565 0.049948394
0.050685167 0.050492298 0.050272204 0.049978919 0.050257027 0.050491452
0.05013039 0.050316025 0.050374087 0.049941652 0.049968008 0.049968008
0.050360002 0.050040338 0.050292328 0.050258774 0.050472897 0.050163727
0.049800668 0.049891673 0.050306514 0.050595477 0.05007454 0.050558545
0.050188966 0.050119743 0.050364502 0.050062049 0.050693754 0.050320979
0.050437912 0.050452568 0.050038498 0.050439648 0.050037488 0.049942136
0.050083198 0.050192606 0.050270472 0.050365277 0.050258305 0.050820399
0.050627939 0.050532945 0.050446741 0.050100792 0.050191667 0.050619259
0.050522242 0.050236586 0.050379533 0.050063096 0.050015006 0.049845159
0.050070912 0.049946416 0.0501533 0.049832024 0.050227594 0.04973926
0.049447101 0.049675807 0.049775161 0.049171627 0.049289037 0.049243066
0.049120802 0.049304157 0.049243916 0.049493495 0.04912211 0.049006674
0.048710346 0.048950739 0.048990019 0.049122375 0.049068209 0.049184311
0.049226642 0.049144883 0.049006909 0.049304809 0.049387544 0.04929575
0.049642108 0.049562089 0.049390074 0.049667843 0.04977468 0.049639851
0.049808074 0.050105982 0.050056625 0.04979682 0.050110031 0.050302245
0.050138745 0.049908459 0.050277777 0.049863826 0.049651645 0.050080929
0.050273061 0.050654817 0.050219487 0.050343506 0.050579499 0.050293621
0.050368469 0.05058397 0.050428398 0.05030315 0.050251752 0.0499225
0.050094448 0.050577011 0.050137628 0.050203118 0.050426144 0.050398204
0.050113618 0.05021685 0.050112776 0.050183002 0.050120432 0.049816046
0.050602213 0.050018907 0.050227255 0.050644699 0.050209288 0.050034244
0.050570201 0.050384004 0.050024811 0.050436001 0.050210074 0.049981765
0.050138079 0.050138079 0.050421964 0.050288245 0.050312262 0.050257839
0.050333135 0.050016042 0.050242022 0.049957737 0.050279722 0.050713304
0.050137587 0.05049682 0.050206166 0.050426718 0.050452154 0.05018653
0.050398625 0.049951576 0.050240379 0.050659787 0.050369207 0.050243534
0.050086915 0.050179478 0.050319199 0.050343331 0.05023846 0.050216828
0.050174747 0.050919507 0.050466951 0.050385926 0.050478637 0.05047854
0.05023298 0.050581992 0.050434202 0.049982809 0.050358705 0.050280057
0.049855497 0.049814083 0.050035559 0.050115962 0.050217856 0.049728189
0.05016816 0.049691189 0.049674239 0.049706556 0.049313433 0.048871797
0.049663994 0.049194656 0.049250845 0.049285099 0.048960503 0.049059741
0.049152821 0.049153514 0.048772216 0.048676223 0.049034674 0.049202226
0.048748378 0.048597198 0.049061768 0.049055729 0.048952874 0.049384557
0.049101785 0.049182959 0.049556192 0.049357232 0.049362715 0.04955272
0.049880397 0.04968901 0.049628131 0.050125379 0.050215956 0.049721491
0.05025151 0.050279621 0.050340008 0.050116569 0.050200831 0.0499634
0.049797479 0.050362755 0.050133061 0.050404962 0.050139248 0.050262362
0.050631691 0.050389294 0.050432786 0.050329458 0.050476205 0.050462112
0.050293926 0.050170518 0.050261207 0.050552096 0.050335307 0.05036442
0.050371371 0.050364818 0.050058935 0.050308704 0.050259881 0.04989101
0.050166983 0.05001067 0.050673679 0.050269075 0.049838062 0.050479572
0.050239217 0.050151505 0.050596558 0.050419766 0.050046422 0.050348014
0.050083667 0.0501571 0.05034795 0.05034795 0.050363377 0.050533462
0.050313573 0.050379101 0.050165009 0.050085146 0.050649017 0.050281361
0.050289277 0.050416306 0.050298281 0.0504959 0.05038058 0.050548408
0.050221439 0.050323434 0.050288253 0.049612336 0.049981471 0.05079015
0.050640281 0.050090231 0.050275482 0.050474204 0.050498642 0.05060824
0.050240286 0.050209552 0.050266892 0.050552223 0.050278164 0.050339442
0.050467703 0.050884884 0.050295252 0.050562419 0.050211504 0.049684398
0.05021948 0.050469439 0.049957994 0.0500062 0.049981978 0.050283913
0.050304711 0.049926024 0.049929015 0.049486432 0.049875088 0.049576435
0.049021251 0.048910346 0.049807571 0.049081422 0.049358729 0.049290139
0.048720811 0.048942596 0.04908802 0.049173534 0.048721403 0.048392002
0.049026504 0.048911184 0.048429944 0.048421375 0.048945498 0.048914179
0.048852302 0.04927244 0.049010865 0.049040217 0.049269546 0.049276922
0.049448736 0.049433857 0.049853202 0.049817055 0.049703654 0.04998447
0.050157834 0.049729474 0.050132859 0.050301723 0.050448153 0.05036021
0.050087284 0.050001495 0.05022968 0.050424624 0.050078623 0.05035644
0.050235346 0.050286129 0.050469209 0.050488379 0.050524838 0.050183445
0.050495733 0.050495218 0.050497275 0.050549906 0.050291419 0.050407525
0.050413422 0.050467007 0.05026561 0.050277639 0.05027315 0.050205838
0.050351482 0.049897812 0.05026564 0.05028211 0.05033122 0.050505456
0.049899023 0.050257582 0.050235767 0.050278425 0.050309237 0.050536159
0.050286338 0.050126258 0.05011753 0.050265148 0.050564308 0.050564308
0.050278801 0.050690103 0.050239325 0.050447028 0.050100878 0.050398245
0.050725199 0.050694089 0.050392441 0.050128922 0.050411601 0.050534718
0.050544433 0.050436798 0.049928129 0.050391883 0.050346229 0.049525514
0.049917724 0.050633568 0.050683018 0.050219964 0.050502744 0.050621163
0.050677538 0.050773766 0.050322942 0.050356504 0.050432663 0.050203405
0.050169915 0.050508514 0.050457451 0.050868154 0.050414979 0.050466657
0.049951985 0.04972307 0.050152909 0.050545659 0.050288066 0.050204854
0.049902808 0.050425962 0.050313905 0.050153643 0.049759999 0.049348298
0.049771339 0.049441677 0.049090665 0.049106751 0.049543701 0.048989981
0.049316932 0.049113397 0.048680793 0.049099233 0.048960157 0.048961803
0.048447184 0.048215192 0.048868008 0.048514873 0.048261285 0.048673317
0.048852097 0.048781946 0.048769806 0.048824571 0.048971269 0.048851814
0.049004227 0.049419079 0.049550775 0.049413119 0.049641553 0.049846414
0.049932938 0.049760334 0.049921449 0.049931321 0.050019488 0.050351623
0.050273288 0.0503457 0.050196614 0.050069943 0.050534196 0.050391447
0.050175391 0.050446518 0.050306372 0.050322615 0.050218228 0.05061426
0.050603393 0.050237983 0.050391488 0.050582759 0.050745782 0.050744515
0.05036106 0.050230008 0.050377734 0.050462313 0.050286639 0.050309602
0.050442897 0.050009869 0.050434787 0.050213672 0.050417989 0.050385129
0.04998995 0.050608043 0.050109476 0.050233077 0.050257005 0.050305303
0.050037026 0.05044109 0.050563376 0.049995705 0.050314169 0.050292287
0.050707553 0.050707553 0.050268076 0.050676242 0.05018336 0.050504003
0.050208159 0.050596543 0.050522022 0.050861999 0.050564043 0.050196964
0.050460935 0.050470356 0.050536063 0.05027413 0.049963195 0.050403584
0.050245363 0.049818441 0.050067089 0.050353236 0.050651152 0.050555553
0.050688576 0.050567299 0.050943494 0.050658111 0.050491229 0.050463017
0.050524376 0.050216064 0.050180759 0.050638869 0.050337922 0.050549433
0.050498784 0.050283272 0.050008729 0.050158542 0.050207056 0.050539814
0.050639886 0.05034095 0.04990131 0.050470807 0.05015099 0.050114807
0.04985309 0.049499977 0.049492076 0.049478311 0.049333528 0.04927554
0.049177408 0.049052741 0.049106706 0.048757676 0.048713349 0.048982225
0.048734102 0.048549995 0.048173036 0.048143607 0.04856484 0.048351858
0.048208464 0.048805926 0.04861109 0.048682161 0.048843935 0.048382271
0.048767727 0.048704039 0.049023949 0.049550951 0.04954299 0.049493242
0.049433678 0.049709525 0.049932703 0.049647521 0.049837723 0.050265159
0.050200753 0.050251376 0.049902584 0.050104327 0.050363876 0.05031823
0.050489791 0.050427243 0.050457131 0.050565057 0.050321501 0.050326928
0.050105173 0.050658152 0.050556667 0.050321575 0.050261077 0.050746091
0.050906047 0.050730847 0.050645135 0.0501578 0.050307378 0.050395392
0.050413381 0.050407935 0.050370056 0.050064512 0.050549991 0.050419547
0.050589997 0.050348621 0.04987637 0.050563861 0.050192852 0.050380625
0.050450195 0.050309021 0.049967058 0.050051127 0.050616816 0.050049886
0.050492119 0.050394028 0.050767098 0.050767098 0.050290376 0.050457284
0.050325088 0.050587099 0.050419062 0.050514702 0.05028712 0.050844014
0.050670303 0.050389063 0.050466184 0.050286032 0.050534155 0.050188269
0.050224163 0.050329018 0.049967721 0.050459072 0.050327521 0.050278749
0.050677367 0.050887179 0.050781805 0.050424941 0.0510462 0.050429817
0.050634667 0.050388496 0.05053205 0.050381973 0.050241094 0.0505905
0.050222311 0.050320119 0.050490819 0.050143234 0.050449498 0.050722986
0.050319094 0.050524566 0.050819315 0.050449103 0.050003566 0.050372541
0.049885701 0.0499085 0.050093427 0.049878858 0.049416889 0.049524758
0.049398042 0.049368925 0.048996549 0.049123254 0.048896588 0.048611484
0.04867588 0.048437659 0.048413802 0.048123527 0.047949012 0.047990274
0.048194002 0.048216589 0.048282087 0.048606213 0.048199702 0.048565991
0.048871402 0.048233323 0.048579928 0.048769634 0.049166191 0.049435873
0.049422216 0.049497001 0.04937768 0.04951299 0.049688186 0.049724635
0.049993202 0.050425339 0.050464805 0.050061524 0.049812097 0.050031923
0.050284658 0.050574977 0.050319396 0.05051988 0.050716814 0.050507624
0.050398462 0.050474897 0.050324157 0.050489474 0.050434299 0.050377112
0.050273865 0.050853055 0.050907318 0.050659075 0.0510021 0.050266478
0.050178926 0.050286241 0.050568726 0.050430987 0.050268006 0.050447762
0.050664809 0.050346855 0.050659999 0.050367091 0.04992469 0.050410312
0.050244659 0.050512001 0.05059386 0.050416064 0.050081018 0.049723297
0.050436549 0.050191324 0.050612368 0.050590109 0.050728098 0.050728098
0.050342891 0.050238799 0.050458159 0.050534748 0.050525028 0.050426122
0.050188046 0.050830018 0.050682634 0.050488055 0.050452024 0.050173081
0.050701022 0.050186194 0.050349314 0.050174333 0.049894035 0.051016126
0.050589461 0.050433211 0.050623633 0.05104002 0.050784498 0.050431382
0.050854579 0.05036895 0.050593432 0.050300613 0.050554559 0.050428394
0.050298691 0.050520916 0.050330352 0.050272331 0.05054431 0.050195348
0.050921652 0.051054146 0.050378114 0.050581492 0.05077913 0.05046656
0.050173942 0.050134666 0.049756039 0.04982828 0.050194323 0.050214615
0.04965172 0.04945172 0.049241018 0.049411606 0.04899767 0.049080998
0.048845701 0.048747342 0.048498072 0.04788797 0.048126895 0.047916517
0.047652785 0.047709566 0.047902435 0.047819 0.048297107 0.048283931
0.047827329 0.04833892 0.048565011 0.048260029 0.048659842 0.048974641
0.049054552 0.049176134 0.049390845 0.049402852 0.049468078 0.049357932
0.04954626 0.049884032 0.050025556 0.050268814 0.050440364 0.050002649
0.050244499 0.050336141 0.050076593 0.050637484 0.05034811 0.050545089
0.050696503 0.050223093 0.050581846 0.050777368 0.050712198 0.050299488
0.050403818 0.050442968 0.050476063 0.050852239 0.050766017 0.050599109
0.051120915 0.050456211 0.050114702 0.050266694 0.050751004 0.050356578
0.050268743 0.050787356 0.050747756 0.050250098 0.050530106 0.050466388
0.050078854 0.050204176 0.050371855 0.050538 0.050432041 0.050545897
0.05031037 0.049802192 0.050283298 0.050394259 0.050717 0.050727915
0.05055603 0.05055603 0.050456174 0.050181359 0.050292045 0.05026678
0.050518721 0.050560154 0.05029704 0.050703075 0.05064087 0.050579008
0.050472669 0.050273109 0.050815057 0.050317999 0.050378993 0.050101303
0.050153673 0.050983749 0.050771177 0.050578941 0.050438002 0.050898254
0.050767239 0.05067984 0.05062471 0.050555643 0.050463762 0.050381534
0.050634399 0.050404664 0.050382722 0.050507821 0.050520021 0.050298914
0.05070274 0.050523397 0.051111933 0.050970331 0.05044527 0.050684404
0.050589673 0.050412696 0.050403345 0.049922816 0.04994946 0.049966894
0.050045144 0.050197795 0.049961574 0.049443346 0.049157012 0.049416043
0.049027711 0.049029175 0.048882708 0.048722688 0.048223235 0.047678452
0.047926091 0.047863364 0.047366209 0.047508653 0.047744844 0.047393136
0.047932006 0.04788081 0.04762727 0.047939394 0.048110627 0.04834342