# vtk DataFile Version 3.0
axinsert(project(permute(???,2,0,1),0,L2),2)
ASCII
DATASET STRUCTURED_POINTS
DIMENSIONS 128 256 1
ORIGIN 0 0 0
SPACING 1 1 1
POINT_DATA 32768
SCALARS nrrd55022 float
LOOKUP_TABLE default
0.05002825 0.049954042 0.04997902 0.049983114 0.049985021 0.050041132
0.050027214 0.04995317 0.049979005 0.050024152 0.050034076 0.049964003
0.049989212 0.050021052 0.05002204 0.050012 0.050010014 0.049987134
0.049978256 0.050013006 0.050015002 0.050038088 0.050007172 0.049952023
0.049997002 0.050035004 0.05001913 0.049973119 0.049949009 0.049967043
0.050026037 0.050028004 0.050000012 0.050006017 0.050027002 0.049996145
0.049995005 0.049972039 0.049960013 0.050000999 0.050034054 0.050017051
0.05002708 0.050021332 0.049998198 0.050025079 0.050001346 0.049949031
0.049976069 0.049996197 0.049961027 0.050002005 0.049983069 0.049996231
0.050067011 0.050045174 0.049968198 0.050010022 0.050023086 0.049979433
0.050033003 0.05001305 0.049962018 0.049998343 0.049953017 0.049997032
0.050046001 0.050017457 0.049938053 0.049966007 0.050042007 0.05002021
0.049978029 0.050040014 0.050018467 0.049960125 0.049971115 0.049993008
0.050021075 0.050027061 0.049987208 0.049980022 0.050046008 0.050005358
0.049947012 0.050012998 0.050018393 0.049978003 0.04997807 0.050000004
0.050062019 0.049997345 0.050002031 0.050003294 0.049999032 0.049994417
0.049935017 0.04999001 0.050000012 0.050035067 0.05001048 0.049982011
0.050057169 0.05003326 0.049991243 0.049986102 0.049987111 0.049954031
0.050001118 0.050015107 0.050011031 0.049970083 0.049950998 0.050017089
0.049991999 0.050051022 0.050004657 0.049957298 0.050039053 0.050027009
0.050021179 0.049971275 0.049952004 0.050018016 0.049991008 0.049974002
0.0500471 0.0500471 0.050043024 0.049896013 0.049909007 0.049992058
0.050052043 0.050101057 0.049992066 0.049923003 0.05000411 0.050064176
0.050076067 0.049860187 0.049935032 0.05004609 0.050025027 0.050047047
0.050049003 0.049956176 0.049910013 0.050034117 0.049946092 0.050033066
0.050087105 0.049994003 0.049990032 0.050071001 0.050090067 0.049979061
0.049841095 0.049949046 0.05007029 0.049922053 0.049973167 0.050077066
0.050096001 0.050029319 0.049999066 0.049995277 0.049925596 0.050034348
0.050057791 0.050038382 0.050065834 0.050007392 0.050005734 0.049973506
0.049999185 0.049952485 0.050000902 0.049992468 0.04989687 0.050045341
0.049923919 0.049886208 0.050203554 0.050111536 0.049960613 0.049997833
0.050036289 0.049953707 0.050088275 0.05005664 0.049903478 0.049939387
0.049904302 0.049951158 0.050121136 0.050147206 0.04992627 0.049918134
0.050079506 0.050004713 0.049927309 0.050105382 0.050046504 0.049955253
0.049958378 0.049934346 0.050021507 0.050021365 0.049967274 0.049978331
0.049989231 0.049960006 0.04997908 0.050120365 0.05003646 0.049931347
0.049968295 0.050039686 0.050097737 0.049960293 0.050000496 0.050014127
0.050002504 0.049948163 0.049880568 0.04999328 0.050001532 0.050124176
0.050018974 0.049963441 0.050064981 0.049985081 0.050022095 0.049955409
0.04994202 0.049904261 0.050006062 0.050087292 0.049989164 0.049953032
0.049940407 0.049955163 0.050024007 0.050147314 0.04997601 0.049937237
0.050095245 0.050030429 0.050055005 0.049946483 0.049851067 0.050008129
0.049982008 0.049974311 0.050028998 0.050028998 0.050012045 0.049943004
0.049924001 0.050037093 0.050106023 0.0500701 0.049936999 0.049968049
0.05007001 0.050081175 0.050042029 0.049822073 0.049899999 0.050033011
0.050032001 0.050051045 0.050058011 0.049953025 0.049959026 0.049987305
0.049869999 0.049998179 0.050072011 0.050071999 0.050016999 0.050072037
0.050084002 0.049990006 0.049915008 0.050056439 0.050019331 0.049826179
0.049993262 0.050097439 0.05010619 0.050058324 0.05001029 0.050112426
0.049987193 0.049991846 0.050029684 0.050076935 0.050043225 0.049992729
0.050003234 0.049869772 0.050035723 0.050076336 0.05000573 0.049938995
0.049907021 0.050067965 0.049932137 0.049944326 0.050188851 0.050072294
0.050004989 0.049951609 0.050015397 0.050000429 0.050010834 0.050034598
0.049940124 0.0499212 0.049898293 0.049919914 0.050099947 0.050193675
0.050037749 0.049905531 0.050013501 0.049993757 0.049914576 0.050073527
0.050016455 0.050032202 0.049997874 0.049899451 0.050020661 0.049985919
0.049984526 0.049980033 0.049888354 0.049951669 0.050070528 0.050096992
0.049997114 0.049937584 0.050033186 0.050100017 0.049996559 0.049961369
0.04996163 0.050006159 0.050019406 0.049967367 0.049956877 0.049999744
0.049990084 0.050115734 0.050088715 0.05000357 0.049957085 0.049885727
0.050046567 0.0499488 0.04991148 0.049932364 0.050054494 0.050095707
0.049921412 0.050020386 0.049972799 0.049881279 0.05005157 0.050055224
0.049962025 0.050016154 0.05005214 0.04999103 0.050055016 0.049969032
0.049862042 0.049939089 0.050020002 0.049988236 0.049908005 0.049908005
0.050024014 0.049972005 0.049972005 0.050045196 0.050067 0.050047006
0.049959026 0.049981061 0.050058 0.050091028 0.050005011 0.049817
0.049897999 0.050061006 0.050054025 0.050058011 0.050037056 0.049967002
0.050040137 0.049948093 0.049906045 0.049988359 0.049975038 0.050040003
0.050039999 0.050080016 0.050066009 0.049998 0.050016042 0.050127354
0.049975168 0.04988727 0.050047699 0.050070822 0.050080501 0.050058551
0.050036587 0.050170939 0.050016806 0.049976185 0.050064899 0.05011173
0.050008137 0.050002534 0.050013337 0.04988176 0.050094169 0.050104473
0.049962249 0.049905922 0.049905416 0.050050788 0.049970903 0.050092608
0.050180733 0.050035331 0.050008159 0.049937423 0.049997114 0.050012246
0.04995691 0.049965575 0.050003998 0.049958512 0.049883395 0.049899425
0.050066769 0.050133605 0.050083857 0.049866281 0.049943693 0.050010234
0.049897768 0.050057858 0.049960624 0.050053328 0.050022665 0.049900547
0.050096601 0.049994409 0.049976707 0.049947295 0.049900524 0.050003681
0.050050896 0.05000332 0.04997037 0.049975265 0.050044574 0.050140087
0.04995263 0.049970694 0.049929641 0.049967621 0.050065406 0.050039016
0.049991067 0.050015241 0.050006576 0.050067641 0.050132774 0.050043721
0.049887899 0.049885985 0.050035924 0.049947895 0.049865015 0.049919531
0.050088875 0.050044507 0.049914401 0.050046738 0.049930394 0.049901348
0.050001755 0.049937058 0.049968146 0.050046064 0.05000912 0.049946006
0.050047006 0.049977005 0.049899999 0.049944013 0.050043024 0.049985029
0.049834043 0.049834043 0.050020006 0.049995005 0.050032008 0.050019052
0.04999201 0.050019018 0.049995087 0.050034001 0.050038002 0.050048001
0.049980041 0.049849998 0.049931999 0.050089028 0.050044004 0.050071999
0.050006017 0.049989011 0.050078046 0.049927 0.049976036 0.049980164
0.04990907 0.05002103 0.050042082 0.050076038 0.050061073 0.050030012
0.050086237 0.050124209 0.049987156 0.049975362 0.050112702 0.050056972
0.05005559 0.05007387 0.050088856 0.050154578 0.050014485 0.050015632
0.050100885 0.050119922 0.050005112 0.05002341 0.050023474 0.049968462
0.050125252 0.050075702 0.049950663 0.049947657 0.049901977 0.050013769
0.050020326 0.050140008 0.050150298 0.050041359 0.050004385 0.049963251
0.04999302 0.049993504 0.04993251 0.04994905 0.050044466 0.049964678
0.049887031 0.04985543 0.050008114 0.050065242 0.050110098 0.049871303
0.049896564 0.050002646 0.04987051 0.05004029 0.049913324 0.050035886
0.050039813 0.049898986 0.050153833 0.050009351 0.049969051 0.049942348
0.049940232 0.050021894 0.050023373 0.049978666 0.049993437 0.049985044
0.050010275 0.050111346 0.049932741 0.049968161 0.049937651 0.049961537
0.050090812 0.050093688 0.049995415 0.050057597 0.050046768 0.050000884
0.050098933 0.050030988 0.049847681 0.049906 0.050023925 0.049961779
0.049840134 0.049905807 0.050061017 0.049986366 0.049970478 0.050020866
0.04988122 0.04996141 0.049939547 0.04989516 0.049968436 0.050011117
0.049988165 0.04987511 0.049998 0.04999201 0.049926002 0.049977999
0.050036024 0.050005022 0.049794074 0.049794074 0.049986999 0.050017044
0.050063007 0.049985006 0.049950015 0.049988035 0.050015081 0.050100006
0.050053 0.050011009 0.049982022 0.049894035 0.049950998 0.050078049
0.05001501 0.050076999 0.049989007 0.049991999 0.050081011 0.049937006
0.050030001 0.050002035 0.049907092 0.050044112 0.05004923 0.050074216
0.050040182 0.050066102 0.050126389 0.050100259 0.050018277 0.050035462
0.050165668 0.050050907 0.050063655 0.050108213 0.050143085 0.05009988
0.050018534 0.050056111 0.050096881 0.050147012 0.050055403 0.050053246
0.050013874 0.050061878 0.050123677 0.050043788 0.049967296 0.050013158
0.0499257 0.049997956 0.050079547 0.050103344 0.050113417 0.050060742
0.04998865 0.050005224 0.05001349 0.049983751 0.049912065 0.049967151
0.050058231 0.049921352 0.04986009 0.049810391 0.049955674 0.04999936
0.050099432 0.049918734 0.049886435 0.049992651 0.049863368 0.050026774
0.049904156 0.049976867 0.050034177 0.049909629 0.050147347 0.050025273
0.049980596 0.04996746 0.04997509 0.050013848 0.050030097 0.050003946
0.050023723 0.049947277 0.049965903 0.050050583 0.049930219 0.049953658
0.049981084 0.049998421 0.050087541 0.050123092 0.049988981 0.050057888
0.050045632 0.049946424 0.05001707 0.049998507 0.049884766 0.049934343
0.049993109 0.049981765 0.049865346 0.049902286 0.050001245 0.04993761
0.050022744 0.049972862 0.049839348 0.049993549 0.049920417 0.049917597
0.049941599 0.049970321 0.049996328 0.049829397 0.049903154 0.049971003
0.049951043 0.049994014 0.049977031 0.050025128 0.049795069 0.049795069
0.04994401 0.050026052 0.050064009 0.04995605 0.049961004 0.049970008
0.050023008 0.050135005 0.050088 0.05000202 0.050000004 0.049918074
0.049942002 0.050042026 0.049987037 0.050074 0.049993034 0.049980007
0.050059058 0.049970008 0.050062001 0.050060004 0.04995615 0.050077237
0.050079282 0.050064519 0.050008144 0.050098337 0.050144278 0.050099473
0.050036352 0.050074629 0.050195668 0.050054897 0.050104793 0.050147485
0.050177254 0.050053943 0.050043944 0.050079525 0.050091337 0.050195623
0.050126046 0.050080117 0.049989551 0.050139688 0.050115012 0.050038647
0.049991265 0.050058272 0.049970847 0.05000858 0.050125245 0.050058424
0.050103467 0.050073374 0.049958427 0.05004156 0.050026994 0.049970541
0.049883313 0.049968708 0.050055962 0.049871556 0.049807079 0.049813457
0.049918778 0.04991971 0.050049003 0.049975656 0.049896978 0.049988773
0.049892709 0.050017379 0.049925473 0.049918845 0.050007597 0.049927335
0.05010689 0.050037611 0.049994972 0.049996886 0.049990434 0.050018042
0.050039619 0.050036099 0.050037157 0.049893193 0.049939401 0.050016996
0.049949083 0.049943373 0.050029162 0.050020982 0.050063271 0.050139315
0.04997848 0.050014086 0.049992673 0.049918201 0.049949393 0.049981672
0.049986169 0.04996809 0.049931608 0.049998075 0.049917724 0.049894825
0.049950581 0.049903221 0.050022148 0.049925752 0.04982673 0.049981769
0.049942475 0.049945157 0.049894556 0.049955681 0.050000381 0.049821571
0.0498114 0.049935099 0.049953215 0.049965046 0.049885023 0.050031118
0.049823027 0.049823027 0.049922049 0.050008014 0.050062999 0.049936008
0.049991999 0.049983002 0.050024021 0.050124001 0.050110999 0.050005011
0.050020002 0.049922034 0.049915999 0.050007001 0.049974028 0.050078999
0.050007012 0.049972009 0.050026011 0.050006006 0.050079003 0.050128002
0.050041195 0.050093375 0.050117224 0.050033707 0.049987067 0.050121587
0.050151121 0.050129689 0.050044321 0.050113879 0.050211642 0.050076067
0.050149996 0.050180644 0.050202481 0.050047159 0.050087743 0.050109062
0.050112516 0.050231632 0.050185956 0.050103027 0.04997959 0.050194208
0.050117694 0.050066587 0.050018653 0.050062358 0.050015241 0.050034724
0.050136868 0.050050616 0.050115146 0.050064806 0.049933601 0.050057035
0.05000861 0.049939062 0.049850423 0.049947456 0.050040707 0.049848791
0.049771439 0.049870327 0.049892012 0.049831759 0.049990002 0.050014623
0.049902372 0.049969539 0.049929634 0.050007138 0.049947318 0.049885392
0.049980842 0.04994794 0.050063178 0.050037228 0.050006062 0.050020471
0.04998938 0.050034449 0.050034672 0.050054338 0.050034788 0.049872279
0.049951039 0.05001482 0.049976971 0.049956284 0.050049525 0.050003305
0.050030038 0.050140604 0.049967889 0.049966451 0.049936257 0.049911778
0.04992909 0.049973741 0.050080743 0.050000917 0.049861167 0.050001781
0.04996001 0.049887437 0.049921896 0.049879011 0.049953524 0.049895696
0.049846187 0.049939986 0.049980655 0.049942378 0.049854472 0.049940057
0.049966257 0.049838562 0.049760379 0.049920328 0.049918294 0.049896084
0.049799003 0.050024025 0.049857002 0.049857002 0.049941063 0.049959999
0.050078016 0.049945012 0.050008006 0.050019022 0.050014075 0.050084002
0.050113 0.050005 0.050027002 0.049918 0.049897 0.049984999 0.049977019
0.050097998 0.050014999 0.04998 0.050006013 0.050021 0.050095025
0.050179008 0.05013917 0.050090387 0.050147135 0.050000627 0.049981054
0.05013065 0.050157078 0.050175775 0.050063286 0.050156187 0.05022059
0.050119329 0.050183177 0.050217807 0.050240893 0.050081596 0.050140824
0.050157733 0.050149146 0.050234575 0.050236039 0.050132021 0.050004084
0.050230075 0.050138082 0.050112192 0.050043371 0.050035719 0.050050475
0.050057951 0.05012209 0.05007926 0.050122079 0.050038133 0.049916066
0.050049331 0.049965583 0.049889788 0.049839944 0.049920816 0.050006267
0.04985046 0.049771402 0.04994078 0.049871806 0.049765412 0.049947269
0.050016448 0.049883623 0.049927827 0.049944606 0.049990855 0.049945127
0.049868491 0.04996584 0.049969263 0.050031196 0.050028753 0.050014097
0.050035872 0.049982239 0.05005189 0.050023559 0.050051764 0.050026417
0.049915731 0.049996957 0.050010856 0.049995672 0.049989134 0.05003858
0.049972735 0.05000503 0.050125264 0.049963318 0.049954366 0.049917508
0.049908474 0.049941152 0.049952786 0.050106455 0.05002049 0.049808599
0.049988694 0.049983174 0.049886122 0.049903158 0.04985965 0.049840875
0.04987688 0.049880508 0.049892213 0.049999852 0.049907178 0.04984444
0.0499052 0.049906179 0.049860593 0.049748279 0.049918562 0.049856212
0.049819134 0.049741998 0.04999901 0.049884055 0.049884055 0.049992025
0.049891006 0.050102074 0.049995039 0.050003018 0.050047018 0.049993034
0.050043002 0.050102003 0.050000008 0.050011009 0.049910057 0.049909022
0.049973998 0.04998903 0.050117005 0.050011013 0.050016999 0.050006032
0.050018001 0.05011503 0.050208036 0.05020909 0.050078209 0.050171062
0.049988341 0.049994074 0.050136529 0.050174132 0.050214753 0.050105289
0.050192416 0.050225537 0.050180517 0.050210297 0.050273031 0.050290357
0.050139938 0.050196756 0.050218169 0.050186399 0.050220247 0.050290257
0.050175067 0.050051898 0.050261531 0.050184306 0.050148621 0.050052285
0.050010443 0.050085895 0.050072841 0.050108489 0.050109401 0.050115261
0.050005652 0.049897008 0.050030716 0.049921222 0.049832109 0.049854357
0.049902447 0.049955856 0.049858451 0.049794044 0.04997506 0.049860068
0.049730796 0.049920224 0.049971733 0.049847599 0.049883828 0.049930844
0.049960166 0.049916163 0.049851432 0.049961884 0.049989332 0.050014079
0.050029088 0.050014321 0.050036959 0.049986228 0.050071266 0.050018653
0.05004327 0.050027572 0.050010435 0.050053854 0.049991637 0.050002422
0.050025813 0.050022297 0.049960576 0.049994387 0.050084364 0.049973872
0.049987901 0.049942017 0.049891971 0.049950439 0.049916863 0.050055463
0.050016902 0.049786016 0.049965601 0.049994469 0.049889766 0.049875446
0.049849078 0.049734317 0.049854565 0.049897779 0.049843572 0.049978014
0.049855921 0.049857497 0.049866065 0.049861267 0.049873739 0.049748305
0.049903728 0.049792144 0.049759224 0.049713004 0.049948134 0.049895126
0.049895126 0.050046001 0.04982201 0.050110135 0.050073005 0.049989011
0.050035 0.049966015 0.050013032 0.050090075 0.049994063 0.049976084
0.049899224 0.049956135 0.049977023 0.050005097 0.050115999 0.050005153
0.050071999 0.050016005 0.050016999 0.050145 0.05022005 0.050222006
0.050071023 0.050191011 0.050002061 0.050033078 0.050154317 0.050205231
0.050229605 0.050164264 0.050220318 0.050230488 0.050251469 0.050243355
0.050344132 0.050333515 0.050206896 0.050250102 0.050276123 0.050231673
0.050222628 0.050357405 0.0502319 0.050097652 0.050307278 0.050253931
0.050161239 0.050042417 0.050011728 0.050130289 0.050085459 0.050114084
0.050117798 0.050093949 0.049973395 0.049877543 0.050009578 0.04988445
0.049781084 0.049866728 0.049888667 0.04989928 0.049857415 0.049813949
0.049945615 0.049850073 0.049712081 0.049882431 0.049895473 0.049818434
0.04986193 0.049899258 0.049918853 0.049888406 0.049833506 0.049960203
0.049991332 0.050009035 0.050054278 0.050003733 0.050023913 0.05001061
0.050093595 0.050024178 0.050044779 0.050041441 0.05010628 0.050095405
0.049977101 0.050012566 0.050051499 0.050023064 0.049979884 0.049993023
0.050017729 0.050000705 0.050048668 0.049987212 0.049874119 0.049934953
0.049879089 0.049969029 0.049981587 0.049783751 0.049941599 0.049994204
0.049886405 0.049842991 0.049848657 0.049677957 0.049825024 0.049876206
0.049791276 0.049908303 0.049806952 0.049871732 0.049840946 0.04985458
0.049870957 0.04974347 0.049865827 0.049734171 0.049715307 0.049705017
0.049874287 0.049880121 0.049880121 0.050077029 0.049774002 0.050087132
0.050142031 0.049974006 0.04998108 0.049939238 0.049995217 0.050080355
0.04999328 0.049942359 0.049889445 0.050008398 0.049991198 0.050032292
0.050090052 0.050012551 0.050119024 0.050029263 0.050036006 0.050176099
0.050228 0.050191052 0.050082047 0.050204009 0.050038025 0.050098028
0.05019309 0.050245199 0.050222289 0.050225157 0.050247774 0.050245378
0.050327078 0.050287239 0.050407819 0.050364081 0.050278436 0.050302774
0.050328646 0.050294183 0.050265595 0.050434113 0.050299108 0.050135836
0.050372552 0.050336752 0.050165817 0.050037634 0.050047264 0.050179772
0.050103221 0.050137959 0.050103225 0.050061934 0.049940277 0.049868464
0.049981933 0.049852807 0.049745411 0.049845487 0.04987343 0.04984479
0.049836345 0.049812406 0.04986266 0.049827058 0.049686536 0.049821131
0.049814478 0.049813364 0.049863461 0.049856577 0.049872234 0.049892668
0.049825698 0.04995276 0.049967356 0.050012235 0.050099395 0.04998618
0.050020047 0.050052572 0.050119035 0.050039366 0.05006247 0.050072022
0.050160371 0.050115887 0.049998794 0.050036237 0.050060619 0.050048221
0.050023708 0.049986858 0.049936406 0.050034285 0.050096285 0.050025187
0.049877334 0.049897883 0.049852677 0.04989931 0.049918894 0.049788218
0.049922954 0.049981669 0.049869359 0.049818072 0.049849734 0.049674872
0.049792092 0.049818993 0.049740523 0.049809996 0.049764585 0.049860254
0.049831141 0.049868118 0.049845167 0.049728699 0.049816888 0.049680296
0.04967035 0.049707055 0.049795348 0.049836051 0.049836051 0.050073095
0.049761001 0.050033092 0.05016613 0.049952131 0.049908299 0.049906611
0.049980596 0.050069835 0.049993731 0.049932893 0.049887702 0.050027817
0.05000871 0.050070699 0.050052341 0.050032161 0.050140209 0.050041061
0.050073154 0.050181635 0.050243229 0.050156467 0.05011436 0.050206192
0.050086353 0.050177012 0.050244011 0.050282035 0.05021001 0.050276022
0.050284147 0.050282169 0.050405458 0.050341818 0.050448056 0.050397236
0.050363749 0.050357915 0.050380904 0.05037535 0.050346047 0.050514121
0.050372481 0.050180085 0.050444636 0.050413888 0.050191522 0.050069332
0.050101172 0.05022423 0.050129097 0.050164819 0.05007828 0.050021462
0.049912341 0.04987134 0.049943354 0.049820937 0.049723625 0.049784843
0.049852338 0.049798664 0.04978855 0.049779985 0.049753748 0.049783159
0.049645003 0.049745787 0.049752954 0.049823515 0.049873032 0.049807623
0.04983085 0.049931772 0.049837884 0.049938321 0.049932476 0.050017849
0.050141554 0.049976613 0.05005262 0.050102986 0.050151929 0.050066344
0.050088767 0.050112229 0.050166 0.050124954 0.05006142 0.050071437
0.050054584 0.05008905 0.050076149 0.049976949 0.049872868 0.050058283
0.050105039 0.050045867 0.049910299 0.049855497 0.049841657 0.049871206
0.049850017 0.049793813 0.049904935 0.04996001 0.049840946 0.049803045
0.049836375 0.049700245 0.049760088 0.049753249 0.049698304 0.04971128
0.049719054 0.049813114 0.049819864 0.049861718 0.049798373 0.04970295
0.049768936 0.04962749 0.049614381 0.049706113 0.049724296 0.049768005
0.049768005 0.050042138 0.049775004 0.049968071 0.050127193 0.049914449
0.049848564 0.049866889 0.049957041 0.05005233 0.049985349 0.049950596
0.049902085 0.050004311 0.050015554 0.050111398 0.050019056 0.05004989
0.050135899 0.050053168 0.050108738 0.050150767 0.05026428 0.050153524
0.050160091 0.050206892 0.050143067 0.050248329 0.050292455 0.05031009
0.050211228 0.050314054 0.05032805 0.050338 0.050482031 0.050398231
0.0504723 0.050452437 0.05046799 0.050419807 0.050447054 0.050464369
0.050448071 0.05059031 0.050452217 0.050253343 0.050506469 0.050471447
0.05026165 0.050152779 0.050163746 0.050260141 0.050163575 0.050187241
0.050054666 0.049990118 0.049899645 0.049876966 0.049891621 0.049784925
0.049703512 0.049706493 0.049823906 0.049757686 0.049715109 0.049713939
0.049649209 0.049722467 0.049590964 0.049676709 0.049714252 0.049823843
0.049867958 0.04975846 0.04979495 0.049984757 0.049871068 0.04992469
0.049919777 0.050026916 0.050162945 0.049993172 0.050125845 0.05015954
0.050206698 0.05010378 0.050118119 0.050155908 0.050147519 0.050141305
0.050141498 0.050105184 0.050045699 0.050132871 0.050125472 0.049974792
0.049858846 0.050057266 0.05007384 0.050045334 0.049956199 0.049823929
0.049839124 0.049872655 0.049795073 0.049793627 0.049880635 0.049932256
0.049809292 0.049788028 0.049798463 0.049720269 0.049725607 0.04970498
0.049667276 0.049634062 0.049660165 0.049739279 0.049789138 0.049808301
0.049737707 0.049665254 0.049727049 0.049572706 0.049550429 0.049688201
0.049663205 0.049688008 0.049688008 0.049995136 0.049795024 0.049912084
0.050037205 0.049856883 0.049821794 0.049820062 0.049916402 0.05002274
0.049963988 0.049971256 0.049927801 0.049960904 0.050002512 0.050137337
0.049997345 0.050052818 0.050117359 0.050065394 0.050123148 0.050094463
0.050279334 0.050186362 0.050207458 0.050214421 0.050203238 0.050292391
0.050334729 0.050341874 0.050236199 0.050352521 0.050371677 0.050404221
0.050548151 0.05045801 0.050503999 0.050535031 0.050582338 0.050492775
0.050537199 0.050558299 0.050557926 0.050662849 0.050539751 0.050361831
0.050552834 0.050512489 0.050373655 0.050281025 0.050234213 0.050292991
0.050205275 0.050204612 0.050039351 0.049985267 0.049910065 0.049876321
0.049834751 0.049743094 0.04967013 0.049637791 0.049786195 0.049712174
0.049623776 0.049626816 0.049564086 0.049650069 0.049526319 0.049626894
0.049689043 0.049801175 0.04984016 0.049720269 0.04976951 0.050026838
0.049918376 0.049918976 0.0499474 0.050039195 0.050160803 0.050045092
0.050220795 0.05022699 0.05028649 0.050151162 0.050153673 0.050192855
0.050142005 0.050178159 0.050209019 0.050131537 0.050049141 0.050174102
0.0501679 0.049995016 0.049902614 0.05003313 0.050023682 0.050029166
0.049981039 0.049813379 0.049837828 0.049874764 0.049765155 0.049784537
0.049845278 0.049900264 0.049780332 0.049766898 0.049741127 0.049713217
0.049681067 0.049682226 0.049640089 0.049578033 0.049588215 0.049655724
0.049732674 0.049712978 0.049672298 0.049614694 0.049680319 0.049511909
0.049487554 0.049647342 0.049603149 0.049602032 0.049602032 0.049937107
0.049800068 0.049870152 0.049923252 0.049778268 0.049820062 0.049772307
0.049867727 0.049979091 0.049931627 0.049968813 0.049947985 0.049925748
0.049972564 0.050127544 0.049980305 0.050042093 0.050095614 0.050069906
0.050112668 0.050035652 0.050281052 0.050237872 0.050250668 0.050235808
0.050261997 0.050309449 0.050372753 0.050382663 0.050282795 0.050400678
0.050410833 0.050473064 0.050599873 0.050524551 0.050563253 0.050634082
0.050691012 0.050579134 0.050649486 0.050657257 0.050665893 0.050735194
0.050638448 0.050497979 0.050598688 0.050555903 0.05051294 0.050427783
0.05031772 0.050333619 0.050256476 0.050222781 0.050039724 0.050015587
0.049940292 0.049869403 0.049781028 0.04969351 0.049620811 0.049593218
0.049730737 0.049649552 0.049522109 0.049532976 0.049503021 0.049565863
0.049449682 0.049594227 0.049663678 0.049759392 0.0497934 0.049702123
0.049760286 0.0500542 0.049968917 0.049927402 0.050009329 0.050062329
0.050156236 0.050126545 0.050315253 0.050309602 0.050378922 0.050207172
0.050208014 0.050220985 0.050169393 0.050235089 0.050252549 0.050152767
0.050078966 0.050210994 0.05020659 0.050042979 0.049983747 0.050003942
0.049977917 0.049996961 0.049971338 0.049820025 0.049833972 0.049850967
0.049756467 0.049769372 0.049799263 0.049856022 0.04975516 0.049741335
0.049678687 0.049677208 0.049621396 0.049662039 0.049600672 0.049534015
0.049513791 0.04957654 0.049652066 0.049603913 0.049606264 0.049549308
0.049617805 0.049444113 0.049432807 0.049579546 0.049533147 0.04950906
0.04950906 0.049871087 0.049777154 0.049831279 0.049808457 0.049690489
0.049817465 0.0497288 0.049823161 0.049925521 0.049895339 0.049933404
0.049940534 0.049908128 0.049935017 0.050078191 0.04996201 0.050024927
0.050069578 0.050057102 0.05008534 0.04999841 0.050272051 0.050285861
0.050285738 0.050270826 0.050311569 0.050319456 0.050408177 0.050433401
0.050343838 0.050457746 0.050456416 0.050539516 0.050642062 0.050597735
0.050648935 0.050729547 0.050789159 0.050679017 0.050777074 0.050769448
0.050771058 0.050809797 0.050748404 0.050646286 0.050669271 0.05062807
0.050659597 0.050571829 0.050422896 0.05039471 0.05031579 0.050246276
0.050063379 0.050074495 0.04997224 0.049867127 0.049740452 0.04963702
0.049556777 0.049563918 0.049652938 0.04956314 0.049418986 0.049440544
0.049453624 0.049469557 0.049360778 0.049566511 0.049629681 0.049712408
0.049736433 0.049709044 0.049778905 0.050076816 0.050015595 0.049949046
0.050081357 0.050102092 0.050178144 0.050221559 0.05039981 0.050403807
0.050463159 0.050277218 0.050283279 0.050249312 0.050232518 0.050304517
0.050282586 0.050184257 0.050140169 0.050244514 0.050243661 0.050104521
0.050070409 0.049990539 0.049951013 0.049958602 0.049934991 0.049838193
0.049824916 0.049796645 0.049759366 0.049752153 0.049745027 0.049790602
0.049726114 0.049716037 0.049625415 0.049623054 0.049544226 0.049610492
0.049539417 0.049489137 0.049449217 0.04950279 0.049552258 0.04950624
0.049531493 0.049469013 0.049536455 0.049370386 0.049388193 0.049486797
0.049446184 0.049405079 0.049405079 0.049801093 0.049727261 0.049776454
0.049709942 0.049605612 0.049787041 0.049689528 0.049790788 0.049866211
0.049855277 0.049871329 0.049894221 0.049892269 0.049898222 0.050000571
0.049941357 0.050008502 0.050034147 0.050026279 0.050051916 0.049997929
0.050261281 0.050315358 0.0503157 0.050309487 0.050349291 0.050342333
0.050442077 0.050484072 0.050407596 0.050518967 0.050522685 0.050607633
0.050686792 0.050676376 0.050747093 0.050815534 0.05088586 0.050792355
0.050905026 0.050896034 0.050880436 0.050894879 0.050870564 0.050797012
0.050781865 0.050743822 0.050805394 0.050706349 0.050550383 0.050479308
0.050380614 0.050277404 0.050111819 0.050144956 0.04999204 0.049874533
0.049716819 0.049576379 0.049485061 0.049533818 0.04955554 0.049459077
0.049318489 0.049344365 0.049400654 0.049361706 0.049264561 0.049530573
0.049583085 0.049674187 0.049679186 0.049737986 0.049827129 0.050106399
0.05005911 0.049979776 0.050145291 0.050168667 0.050244235 0.050319061
0.05048129 0.050501958 0.050529901 0.050362073 0.0503731 0.050301183
0.050325554 0.05037744 0.050320253 0.050239615 0.050224867 0.050273534
0.050276242 0.050159171 0.050135255 0.050001577 0.0499487 0.049927387
0.049898352 0.049856052 0.049811833 0.049727973 0.049762018 0.049739111
0.049680572 0.049704168 0.049685638 0.049686041 0.049587019 0.049565367
0.049455438 0.049509518 0.049454879 0.049435612 0.049398046 0.04942641
0.049439523 0.049424984 0.049434688 0.049374718 0.049444057 0.049293779
0.049344607 0.049373049 0.049339231 0.049287088 0.049287088 0.049729154
0.049662374 0.049684674 0.049628716 0.049538728 0.049722709 0.049651332
0.049760643 0.049801357 0.049806617 0.049798984 0.049810026 0.049852222
0.049861353 0.049914896 0.049920045 0.049989972 0.049987309 0.049981598
0.050019085 0.050030481 0.050256252 0.050318822 0.050336946 0.05034443
0.050376661 0.05038853 0.05047626 0.050527062 0.05046675 0.050583616
0.05061524 0.050682887 0.050746642 0.050759748 0.050842207 0.05089641
0.050997298 0.05092217 0.051027402 0.051034097 0.051008057 0.050996356
0.051000871 0.050949086 0.050942641 0.050902702 0.050944932 0.050841033
0.050699193 0.050589878 0.050455887 0.050320189 0.050177168 0.050210677
0.049990017 0.049888175 0.049705978 0.04952044 0.049414594 0.049485907
0.049444698 0.049342234 0.049214851 0.049233112 0.049319141 0.049248062
0.049172141 0.049475268 0.049526189 0.049649712 0.049632736 0.049781952
0.049893893 0.050147623 0.050108228 0.050024446 0.05020012 0.050263438
0.050358366 0.050417021 0.050574046 0.050597232 0.050583832 0.050462507
0.05046697 0.050395347 0.050441872 0.050451778 0.050383318 0.050323427
0.050316252 0.05029884 0.050301544 0.05019274 0.050167706 0.0500318
0.049968425 0.049914561 0.049876783 0.04986443 0.049793135 0.049663782
0.049760554 0.049724158 0.049606301 0.049604014 0.049625888 0.049638718
0.04955605 0.049509712 0.04935699 0.04937382 0.049352415 0.049370594
0.049354613 0.04933716 0.049321141 0.04934305 0.049308654 0.049270488
0.0493505 0.049219333 0.049289946 0.04924025 0.049217269 0.049160093
0.049160093 0.049656291 0.049591504 0.049553946 0.049559552 0.049494974
0.049632274 0.049605027 0.049709775 0.049723152 0.049745608 0.049729638
0.049709182 0.049777713 0.04982014 0.049839105 0.049896915 0.049963504
0.049929027 0.049927972 0.049986761 0.050075233 0.050253741 0.050296851
0.050343022 0.050369605 0.05039829 0.050452873 0.05051202 0.050565198
0.050525282 0.0506531 0.050721843 0.050762143 0.050826497 0.050846737
0.050929043 0.05098974 0.051134847 0.051074803 0.051150441 0.051175743
0.05116808 0.051118057 0.051139332 0.05110836 0.051141612 0.051090248
0.051082015 0.050993584 0.050862119 0.050723881 0.050557245 0.050383553
0.05025126 0.050264563 0.049976673 0.049901862 0.049694251 0.049474575
0.049350288 0.04941617 0.049322739 0.04921433 0.049104117 0.049097344
0.04919729 0.049135596 0.049093518 0.049398545 0.049463205 0.049642038
0.049608115 0.049831916 0.049961306 0.050200403 0.050176907 0.050096028