# vtk DataFile Version 3.0
axinsert(project(???,0,L2),2)
ASCII
DATASET STRUCTURED_POINTS
DIMENSIONS 256 1 1
ORIGIN 0 0 0
SPACING 1 1 1
POINT_DATA 256
SCALARS nrrd81495 float
LOOKUP_TABLE default
0 0 0 0 0 0 0 0 0 0 0 0 0 0 0 0 0 0 0 0 0 0 0 0 0 0 0 0 0 2.4494898e-06
1.9261361e-05 0.00013577555 0.00095419545 0.0063425866 0.039103847
0.21573825 0.97658354 2.2958364 1.434724 1.5368007 1.3552111 0.94397694
1.1596313 1.5642272 1.8222781 1.7557592 1.5217547 1.8021952 1.7567306
1.6502626 2.0465674 2.4801826 2.0966382 1.623346 1.2941751 1.1044664
1.000299 0.93882596 0.89810914 0.86819077 0.84481144 0.82491249 0.80753136
0.79200864 0.7777608 0.7646361 0.75245523 0.7410745 0.73037201 0.72024292
0.71061432 0.70151812 0.6928528 0.68406296 0.67578012 0.66796422 0.66024148
0.65294969 0.64633447 0.64021397 0.63428301 0.6284216 0.62188208 0.61492085
0.60753381 0.60020453 0.59410411 0.59108603 0.59013963 0.58969575
0.58903646 0.58611631 0.58064997 0.57530022 0.56739044 0.55882722
0.55071574 0.54340398 0.53835893 0.53567821 0.53528601 0.5368458 0.53931332
0.54122424 0.54246497 0.54073268 0.53817922 0.53376454 0.53161889
0.52852607 0.52442122 0.51896179 0.51413029 0.50822985 0.49767929
0.48392239 0.46825129 0.45252427 0.44133803 0.46377608 0.52986413
0.57089961 0.58998686 0.61725616 0.68164086 0.73580927 0.71741039
0.66654903 0.66654903 0.66952324 0.68227464 0.674353 0.64028603 0.61175513
0.59645128 0.55920541 0.47519696 0.40513423 0.39476058 0.40229911
0.37880182 0.32298273 0.27213201 0.26171392 0.2857638 0.3294684 0.37880307
0.41234231 0.42209801 0.41398072 0.39307377 0.36714703 0.34582245
0.33386001 0.33284906 0.33976302 0.35880935 0.38722441 0.41883159
0.44759557 0.46796325 0.48150545 0.49312666 0.50729495 0.52348435
0.54009551 0.5577051 0.58074111 0.6131112 0.65532881 0.70372874 0.75243974
0.79629475 0.83204472 0.85673094 0.87014854 0.87374467 0.86649626 0.8484481
0.81989139 0.78322506 0.74252313 0.70275235 0.66718459 0.6360265 0.60745203
0.58062303 0.55362582 0.52524173 0.49628472 0.46518952 0.4271251 0.377269
0.31625912 0.2348676 0.13641079 0.051179856 0.0082753291 0.00083638984
7.5894663e-05 6.2449981e-06 0 0 0 0 0 0 0 0 0 0 0 0 0 0 0 0 0 0 0 0 0 0 0 0
0 0 0 0 0 0 0 0 0 0 0 0 0 0 0 0 0 0 0 0 0 0 0 0 0 0 0 0 0 0 0
