# vtk DataFile Version 3.0
axinsert(project(permute(???,2,0,1),0,L2),2)
ASCII
DATASET STRUCTURED_POINTS
DIMENSIONS 128 256 1
ORIGIN 0 0 0
SPACING 1 1 1
POINT_DATA 32768
SCALARS nrrd42172 float
LOOKUP_TABLE default
0.050009351 0.050009202 0.050024007 0.050012004 0.050028633 0.049941707
0.049898159 0.049993604 0.050037771 0.049971696 0.049959894 0.050073806
0.05004729 0.049945053 0.049963199 0.050028 0.049996 0.049881142
0.049997304 0.049995072 0.050001372 0.050018772 0.050052971 0.050057333
0.050032135 0.050006595 0.050075151 0.049967181 0.049999144 0.049979027
0.05006028 0.049976222 0.049932148 0.050073069 0.049972255 0.049880877
0.049897738 0.04995985 0.050003055 0.050072704 0.050082978 0.050055481
0.049994212 0.050003298 0.049986571 0.050027039 0.050035182 0.049962159
0.050044157 0.049934044 0.049949773 0.050036527 0.050008185 0.050038695
0.050035 0.050051033 0.049972437 0.049937356 0.049948372 0.049980894
0.050078031 0.049994234 0.049997188 0.050060488 0.050021689 0.049936052
0.050006051 0.05000921 0.049971018 0.05001926 0.049982008 0.049988013
0.049997203 0.050026044 0.050057713 0.049984999 0.050015684 0.049931068
0.05000148 0.050012358 0.049993057 0.050037075 0.050066587 0.04996622
0.049974069 0.050038453 0.049994029 0.049939342 0.049928028 0.049995001
0.050074115 0.049980883 0.049999431 0.049999028 0.050056275 0.050017383
0.05001298 0.050013021 0.050017893 0.049926147 0.049964994 0.050029185
0.050021499 0.049993046 0.050079506 0.050023481 0.04995811 0.049940102
0.050013408 0.050007153 0.050057713 0.049971595 0.049997196 0.049968842
0.049921017 0.049987037 0.05003202 0.050101567 0.05005664 0.049965058
0.049989093 0.049953744 0.049958047 0.049974028 0.050021391 0.050021369
0.0499833 0.0499833 0.04999005 0.049985234 0.05006155 0.049955323
0.050084312 0.04990533 0.049835365 0.049938343 0.049966764 0.049929146
0.049961023 0.050127067 0.050060518 0.049970932 0.050047029 0.049975086
0.049911343 0.049768001 0.049796626 0.049992032 0.049884059 0.050112508
0.050135016 0.050032388 0.050037023 0.050039914 0.050256513 0.049948242
0.049884539 0.049844589 0.050035015 0.050065231 0.050022695 0.050047822
0.049990248 0.04974759 0.049745373 0.049890149 0.050021674 0.050133973
0.050177105 0.050115518 0.050035007 0.050036076 0.049928203 0.050042644
0.050174624 0.049909059 0.049955707 0.049980789 0.049824096 0.050103426
0.050160076 0.05014487 0.050094999 0.050154496 0.049967032 0.049947336
0.049955036 0.050030082 0.050005656 0.049991943 0.050062519 0.05019822
0.050004359 0.049915377 0.049987029 0.050028238 0.050033033 0.04992288
0.049958367 0.050144818 0.049932059 0.050147634 0.05010679 0.049876034
0.049909037 0.049805164 0.050053064 0.050067488 0.050017346 0.050131999
0.050268129 0.049949136 0.050073352 0.049912818 0.049850062 0.04992874
0.050017953 0.050078955 0.050103083 0.050002325 0.049918815 0.050017077
0.05010305 0.050166704 0.049829781 0.050022587 0.050000839 0.049793087
0.049915422 0.050077163 0.050077252 0.05000471 0.050121687 0.049928553
0.049920101 0.04998596 0.050056662 0.050088361 0.049969483 0.049921121
0.050049361 0.049787272 0.049806416 0.049991012 0.049981017 0.050145488
0.050161202 0.049891002 0.05006402 0.049937226 0.049852088 0.049968798
0.049927656 0.050093044 0.049997002 0.049997002 0.049996197 0.04989114
0.049969383 0.049964122 0.050096497 0.049933072 0.049944524 0.049954813
0.049902566 0.050042983 0.049803015 0.049888052 0.050071865 0.050182033
0.050187014 0.049858246 0.049843218 0.049993172 0.049820032 0.049960092
0.049655002 0.050262924 0.050055999 0.049892657 0.050008506 0.049989402
0.050128158 0.050064463 0.049797673 0.049897447 0.049850442 0.050139047
0.050229006 0.049919005 0.049976103 0.049819 0.049858294 0.050036442
0.050088521 0.050047223 0.050087962 0.049963001 0.050079837 0.04999125
0.050027255 0.049862254 0.050125781 0.050093431 0.049840037 0.050073061
0.049958251 0.050108444 0.050219178 0.050124012 0.050051358 0.050115317
0.050065026 0.05002014 0.049944136 0.05007942 0.049833145 0.050067384
0.050356857 0.050156001 0.049942475 0.049853053 0.050030127 0.050053459
0.05003567 0.049830072 0.050005708 0.05027201 0.050016455 0.050081175
0.049925208 0.049831118 0.049981024 0.050064027 0.05000833 0.049944166
0.050017033 0.050149556 0.050313007 0.049961451 0.050035998 0.049835004
0.049804013 0.050041933 0.050153095 0.050185658 0.049945012 0.050234735
0.04992504 0.050094064 0.050074071 0.050172307 0.049788002 0.049908537
0.050030198 0.049853262 0.049893696 0.049921211 0.050098009 0.050007019
0.050101053 0.049837153 0.049982212 0.050053027 0.050050005 0.050157007
0.049753092 0.049984127 0.049960155 0.049799472 0.049902566 0.049876999
0.049817059 0.049935024 0.05030204 0.049910028 0.050127011 0.050095018
0.049836051 0.049872797 0.04971347 0.050175197 0.050060377 0.050060377
0.050071009 0.049919091 0.049807306 0.04989903 0.050232999 0.049801178
0.050038103 0.049934961 0.049961332 0.050354443 0.04960914 0.049779993
0.050157361 0.05024932 0.050177194 0.049861759 0.049842946 0.050054614
0.050130315 0.050034706 0.049598511 0.050274037 0.049888145 0.049937699
0.050149225 0.049950585 0.04991984 0.050043941 0.049852457 0.049989238
0.049750429 0.050214436 0.050174452 0.050145343 0.050074395 0.049856178
0.050006066 0.050224252 0.050074376 0.050028499 0.050119184 0.04983452
0.049903657 0.049845736 0.050121207 0.049725071 0.050143775 0.050147574
0.04986782 0.050119314 0.050096374 0.050176211 0.050043024 0.049941387
0.049975999 0.049966197 0.050074745 0.04995105 0.049782265 0.049986575
0.049837157 0.050144505 0.050690215 0.050150648 0.049848255 0.049647551
0.050199002 0.049878005 0.049737029 0.049940981 0.050007753 0.05022952
0.050121699 0.049958929 0.049657069 0.049899612 0.050184701 0.050283536
0.050081909 0.0497116 0.049829263 0.050171308 0.050310928 0.049971968
0.049876541 0.049943376 0.049903031 0.049995001 0.050029717 0.050303955
0.049814843 0.050459899 0.050183784 0.050224099 0.050169956 0.049956728
0.050023105 0.049807131 0.050068397 0.05009722 0.049802933 0.049746286
0.049973674 0.050026022 0.050159391 0.049853742 0.049888618 0.050145917
0.050011203 0.050200295 0.049745891 0.050035857 0.049918119 0.049890019
0.050063815 0.049821638 0.049725045 0.049932785 0.050412156 0.050012536
0.050030455 0.050135892 0.049980007 0.049779527 0.049621351 0.050213572
0.050057061 0.050057061 0.050231002 0.050056025 0.049860694 0.049765695
0.050298095 0.049804229 0.050131667 0.04968638 0.050075334 0.050492857
0.049673673 0.04993448 0.050146747 0.05011344 0.0501213 0.050030272
0.049843613 0.049858935 0.050458901 0.050294086 0.049925078 0.050017565
0.049669985 0.050016101 0.050279222 0.050082996 0.049970396 0.049865879
0.050085858 0.049929436 0.049714595 0.050194524 0.050050713 0.050555781
0.050316688 0.049948651 0.050086487 0.050311942 0.049954306 0.050097719
0.050166003 0.049802251 0.049660917 0.049700636 0.050073244 0.049718842
0.050234456 0.049931221 0.049917031 0.050124936 0.050030071 0.05029764
0.049813785 0.049738504 0.049980197 0.049830399 0.049897607 0.049918134
0.049696028 0.049936086 0.049843121 0.050085027 0.050619315 0.050138392
0.04986015 0.049560461 0.050232075 0.049590681 0.04945679 0.050066121
0.049889151 0.050134134 0.050044283 0.04977943 0.049453776 0.049913906
0.050183866 0.050081555 0.050269905 0.04990815 0.049681693 0.050042003
0.050186832 0.050138593 0.049911063 0.050091334 0.050009314 0.0499468
0.04982353 0.05035558 0.0498579 0.050383862 0.05050616 0.050301552
0.050359752 0.049733426 0.050186116 0.049838558 0.050029021 0.050318837
0.049632568 0.049804281 0.049829081 0.049967069 0.050256651 0.049937349
0.049719032 0.050327107 0.049998228 0.050178513 0.050027132 0.050010707
0.049935408 0.049964253 0.050151918 0.050061181 0.049841039 0.050074253
0.050346598 0.050082408 0.04988841 0.050041433 0.050193079 0.049897041
0.049837094 0.050017238 0.049966507 0.049966507 0.050167717 0.050173189
0.050038017 0.049947217 0.050171081 0.049917042 0.050339695 0.049498681
0.050115347 0.050329082 0.049905837 0.050175764 0.050136257 0.049881347
0.050095737 0.050192036 0.049819067 0.04978225 0.050641377 0.050562795
0.050337303 0.049705159 0.049574874 0.049955323 0.050094057 0.050253786
0.050201003 0.049845397 0.050297011 0.049928661 0.049742974 0.050111752
0.050112538 0.050664887 0.050488669 0.05004761 0.050015591 0.050185606
0.049941011 0.050083872 0.050125334 0.049871124 0.049655795 0.049684189
0.049975574 0.049772747 0.050189756 0.049836602 0.049941983 0.049956731
0.04981412 0.050210305 0.049771126 0.049609285 0.05002543 0.049856145
0.049688462 0.049944587 0.049723011 0.049970329 0.049759079 0.049887475
0.050206404 0.04995583 0.049978185 0.04963351 0.049973067 0.049483296
0.049445648 0.050025925 0.049695361 0.049962826 0.049825501 0.049570635
0.049363814 0.049809709 0.050016738 0.049720414 0.050219677 0.05052333
0.049874421 0.04968733 0.049892597 0.050289001 0.050024752 0.050280109
0.050034616 0.050065175 0.049749006 0.050282165 0.050175432 0.050291486
0.050531376 0.050248682 0.05046336 0.049637131 0.050149083 0.050055232
0.049894262 0.050338898 0.049707271 0.049980909 0.049895216 0.04981304
0.05021226 0.050205421 0.049756315 0.050347012 0.049981944 0.050046168
0.050481994 0.049951963 0.04987321 0.049974982 0.050119314 0.050322138
0.050102055 0.050154634 0.050070018 0.050184567 0.050010439 0.049981613
0.050123964 0.050035115 0.050391998 0.049746189 0.049865 0.049865
0.049900446 0.050302953 0.05003351 0.050300043 0.049992111 0.049944289
0.050509419 0.04972963 0.050112482 0.050197579 0.050234087 0.050367258
0.050238334 0.04973032 0.050054818 0.050144192 0.049888868 0.050033774
0.05069961 0.050522197 0.050453145 0.049608964 0.049633317 0.049804114
0.049866419 0.050237481 0.050207119 0.050055094 0.05037744 0.050106306
0.049905352 0.050208356 0.050171386 0.050341848 0.050588418 0.050170813
0.049814187 0.049881231 0.050016351 0.050014846 0.050078984 0.050008122
0.049915098 0.04979863 0.049831901 0.049793325 0.050097995 0.049915865
0.049982108 0.04984175 0.049722973 0.049876906 0.049794629 0.049542014
0.049845666 0.049918212 0.04970587 0.049847696 0.049780384 0.049925234
0.049734715 0.049733154 0.049732331 0.049751248 0.049962029 0.049604788
0.049528852 0.049500387 0.049562957 0.049848109 0.049569827 0.049794294
0.049678475 0.049444299 0.04938386 0.04968648 0.049914833 0.049618509
0.049841776 0.050701648 0.050119944 0.049459878 0.049724914 0.050212309
0.050002668 0.050465588 0.050088581 0.050280079 0.049964577 0.050091799
0.050538413 0.050264686 0.050333079 0.050106846 0.05046222 0.049742106
0.050049372 0.050287098 0.049775776 0.050225619 0.050169952 0.050146431
0.050092433 0.04964976 0.050021902 0.050645646 0.050036624 0.050122783
0.050030172 0.049925517 0.050719611 0.049877744 0.049845174 0.049851026
0.050059438 0.050360538 0.050253566 0.050290529 0.049775679 0.050320201
0.050432209 0.049935509 0.049889315 0.049994264 0.050886597 0.04976454
0.04981263 0.04981263 0.049874227 0.050378904 0.050017308 0.050323654
0.049948119 0.050055064 0.050405134 0.050185427 0.050156668 0.050138772
0.050586924 0.050411269 0.050400913 0.049902495 0.049933281 0.050070196
0.050075367 0.050347693 0.050588556 0.050109863 0.050272021 0.049716182
0.049718898 0.049796965 0.050001748 0.050126992 0.049976643 0.050297834
0.050310895 0.050250828 0.050245058 0.050433956 0.050070878 0.049904563
0.050605662 0.050411113 0.049740188 0.049706951 0.050019287 0.049981263
0.050081287 0.05011522 0.05003988 0.049974002 0.049716633 0.049735364
0.050084624 0.049896859 0.050027546 0.04997465 0.0498739 0.049535669
0.04973514 0.049515519 0.049466424 0.049804002 0.04978539 0.049776591
0.049806915 0.049679272 0.049736273 0.049664523 0.049357079 0.049670007
0.04976701 0.049360082 0.049169101 0.049468476 0.049640168 0.049643613
0.049659859 0.04963113 0.049571645 0.049413715 0.049485624 0.049652543
0.049819216 0.049831476 0.049421873 0.050150182 0.05011268 0.049642961
0.04981 0.049981892 0.049963925 0.050392412 0.050240003 0.050385904
0.050294202 0.049949542 0.050580777 0.050089166 0.050259117 0.050135139
0.05043903 0.050152857 0.049957454 0.050295245 0.04991059 0.050104633
0.050584212 0.050273985 0.050145991 0.049603701 0.049975086 0.050858218
0.050338417 0.049944211 0.050187163 0.049914215 0.050391994 0.049843043
0.049975127 0.049840752 0.050037261 0.050237838 0.050197046 0.050534233
0.049793266 0.050362337 0.050742526 0.049831882 0.04983329 0.050000746
0.050878078 0.050123297 0.049823441 0.049823441 0.050102074 0.050266527
0.050169431 0.050097164 0.050159518 0.050405592 0.050154429 0.050493125
0.050162211 0.050132286 0.050677031 0.050211716 0.050470408 0.050300233
0.049931407 0.050163258 0.050171666 0.050450504 0.050283328 0.049750801
0.05009675 0.049824614 0.049859338 0.050042383 0.050327338 0.050033759
0.049917426 0.050380014 0.050152615 0.050264351 0.050547272 0.050554175
0.0500351 0.049851485 0.050544959 0.050507076 0.049908675 0.049848199
0.050056912 0.049869403 0.050101243 0.050156876 0.04983082 0.050062109
0.049722701 0.049803846 0.050043792 0.049788199 0.050034918 0.049992282
0.050002363 0.049418546 0.049642693 0.049434304 0.049369063 0.049551569
0.049609743 0.049874812 0.049654067 0.04938373 0.049573164 0.049431004
0.049332127 0.049581189 0.049458817 0.049212866 0.049150415 0.049390562
0.049613334 0.0495723 0.0498465 0.049331341 0.049324937 0.049492612
0.049571566 0.049683716 0.049684126 0.049981158 0.049203012 0.049552567
0.05002154 0.049979273 0.049965583 0.049839776 0.050020944 0.050096281
0.050331242 0.050262149 0.05039506 0.049991503 0.050373238 0.050011706
0.050237402 0.05037016 0.050387453 0.050560944 0.04999977 0.050144322
0.050258044 0.050043613 0.050630454 0.050333444 0.050107472 0.04980129
0.050176434 0.050699685 0.050374966 0.050033409 0.050329521 0.049914025
0.049827427 0.04994585 0.050137971 0.050106976 0.050050814 0.05014319
0.050157387 0.05064512 0.050166372 0.050275274 0.050560921 0.049815189
0.050045263 0.050125152 0.050467119 0.050518118 0.04986494 0.04986494
0.050306004 0.050077654 0.050182573 0.05004153 0.050540026 0.050744291
0.050078768 0.050569702 0.050098762 0.050298564 0.05039027 0.049966034
0.0503533 0.050497267 0.050178926 0.050180387 0.050197434 0.050392866
0.049960095 0.049898427 0.050099663 0.049913168 0.050141472 0.050248925
0.050336979 0.049951326 0.050166108 0.050328869 0.050083626 0.050360564
0.050551109 0.05051114 0.050156575 0.05027302 0.050414771 0.050297711
0.050192237 0.050140105 0.05017256 0.049694411 0.050163228 0.050163377
0.049700107 0.049942613 0.049696259 0.050076593 0.049911063 0.0497864
0.049915288 0.049752887 0.049892098 0.0494918 0.049489483 0.049271829
0.049674023 0.049394615 0.049314588 0.049777865 0.049414363 0.049228754
0.049271226 0.049225532 0.049488008 0.04930339 0.049126927 0.049285397
0.049343504 0.049332459 0.04943341 0.049572717 0.0498216 0.049109947
0.049124029 0.049685821 0.049542546 0.049653295 0.049618792 0.049785987
0.049146 0.049316335 0.050024081 0.050113659 0.050074913 0.04984713
0.050067995 0.049931686 0.05019559 0.050054006 0.050319772 0.050149992
0.050314061 0.050313476 0.050031804 0.05041223 0.050333384 0.050533008
0.050314102 0.050114896 0.050464805 0.050153777 0.050482877 0.050271131
0.050129198 0.050135586 0.050308935 0.050528184 0.050217006 0.050246045
0.050446667 0.050040893 0.049622629 0.050138108 0.050192859 0.050399527
0.050132044 0.05014405 0.050221998 0.050468005 0.050591331 0.050195832
0.050125062 0.050004613 0.050400216 0.050166495 0.050150886 0.050522417
0.049948018 0.049948018 0.05047071 0.050031871 0.050024122 0.050205257
0.050628211 0.050767004 0.050223328 0.05051202 0.050108999 0.050315246
0.050125293 0.050113548 0.050202046 0.050445635 0.050331026 0.049966134
0.050400551 0.050311267 0.049838774 0.050271019 0.050138116 0.050146192
0.050443664 0.050174158 0.050020609 0.05002838 0.050562862 0.050291128
0.050167978 0.050586045 0.050318632 0.050379224 0.050294984 0.050654154
0.050222337 0.050173618 0.050375897 0.050302349 0.050182454 0.049794711
0.050347377 0.050197732 0.049847946 0.049844716 0.049665906 0.050094504
0.049846448 0.049951624 0.049590629 0.049535919 0.049646001 0.049568366
0.04936447 0.049263742 0.049858574 0.049391609 0.049121611 0.049399272
0.049377788 0.048961338 0.049076162 0.049378864 0.049311049 0.048888166
0.048928976 0.049270317 0.049380749 0.049336158 0.049110014 0.049364258
0.049555834 0.049273729 0.049220212 0.049756158 0.049436543 0.049584236
0.04958494 0.049407367 0.049332403 0.049313154 0.050025601 0.050021429
0.050076198 0.049827248 0.049999803 0.049969871 0.049925122 0.049978647
0.050356217 0.050323494 0.050380901 0.050606504 0.049876198 0.050110061
0.05034437 0.050231203 0.050672486 0.050301887 0.050392177 0.050437003
0.05041619 0.050213341 0.050177436 0.050435252 0.05024837 0.050408918
0.050121937 0.050386872 0.050593998 0.050454132 0.049901061 0.050218131
0.050309021 0.050477002 0.050218999 0.05020104 0.050230194 0.050227012
0.050689254 0.050235067 0.049919013 0.050248306 0.050549775 0.050254516
0.05009672 0.050108161 0.05013204 0.05013204 0.050477132 0.050193343
0.050025005 0.050473623 0.050205652 0.050546162 0.050407 0.050383005
0.050181951 0.050040044 0.050263468 0.050589643 0.050234243 0.050381869
0.050264787 0.049929734 0.050685197 0.05029168 0.049938831 0.050269309
0.050039079 0.050399918 0.05057257 0.050120044 0.049974658 0.050262112
0.050853997 0.050352648 0.050348699 0.050624087 0.050063029 0.050284021
0.050377186 0.050647743 0.05014994 0.050340358 0.050234843 0.050199911
0.050126813 0.050244778 0.050548818 0.05022588 0.04989383 0.049935825
0.049956366 0.049740121 0.049929548 0.050124761 0.049231745 0.049433388
0.049442697 0.049579918 0.049440801 0.049522739 0.049538631 0.049361769
0.04908435 0.049176559 0.049402937 0.048527204 0.049004264 0.049452152
0.048870202 0.048629016 0.048829999 0.049069442 0.049165234 0.049341854
0.048833884 0.048971437 0.049272884 0.049453784 0.049418554 0.049592324
0.049492389 0.049520135 0.049471926 0.049202904 0.04976064 0.049474388
0.049920302 0.049873717 0.049881488 0.049788319 0.049840245 0.049965549
0.049857467 0.050060358 0.05051763 0.050536439 0.050289243 0.05048592
0.049995534 0.049875822 0.050375737 0.050080676 0.050765377 0.050462563
0.050073933 0.050646588 0.050531417 0.050323993 0.050273042 0.050690427
0.050282061 0.050173596 0.050184734 0.050524831 0.050649241 0.050813127
0.050397299 0.050167054 0.050541017 0.05045104 0.050180055 0.050283164
0.050198004 0.0501481 0.050478999 0.050308652 0.05005718 0.050312597
0.050302263 0.050509702 0.050140027 0.049760826 0.0503744 0.0503744
0.050254006 0.050324108 0.050249107 0.050663359 0.049797278 0.050443001
0.050469067 0.050246168 0.050174765 0.049991265 0.050616018 0.050689943
0.050398801 0.050337646 0.050350461 0.05030816 0.050645672 0.05037545
0.050081167 0.050011624 0.05000516 0.050444026 0.050512273 0.050436214
0.050391898 0.050347552 0.050821338 0.050493486 0.050599102 0.050339498
0.049983777 0.050322179 0.050382223 0.050539028 0.050308626 0.050505273
0.049901728 0.050060097 0.050160259 0.050637543 0.050491441 0.050122239
0.049777575 0.050027933 0.050421339 0.049643669 0.04999895 0.050019484
0.049094222 0.049408995 0.049410947 0.049555946 0.049566746 0.049729243
0.049020801 0.049326558 0.049221169 0.049027905 0.049152836 0.048430447
0.048802551 0.048981149 0.048566785 0.048690028 0.04870709 0.048812486
0.048890986 0.049199309 0.048812747 0.048712902 0.049074478 0.049230307
0.049384974 0.049462479 0.049778759 0.049366388 0.049302459 0.049300209
0.050004531 0.049758703 0.049736373 0.04977943 0.049631525 0.049856577
0.04981219 0.049816966 0.050075922 0.050200526 0.050577965 0.05071982
0.050230362 0.050163671 0.050164074 0.050020494 0.050327364 0.050168592
0.05070021 0.05042753 0.049755946 0.050500236 0.050573971 0.050442066
0.050436303 0.050870214 0.050501343 0.050108898 0.05045554 0.050663881
0.050571937 0.050752886 0.050802823 0.050249539 0.050610542 0.050462369
0.050120737 0.050273761 0.050276674 0.050212633 0.050229222 0.050332472
0.050329089 0.050245725 0.050028 0.050574593 0.050159056 0.04994496
0.050525192 0.050525192 0.050110947 0.050224733 0.050549176 0.05061011
0.049862109 0.050482981 0.050391246 0.050211679 0.050236445 0.050286327
0.050634708 0.050307114 0.050548028 0.05034918 0.050634015 0.050647847
0.050256006 0.050483007 0.050160412 0.049990851 0.050257899 0.050450191
0.050459333 0.050895125 0.050737344 0.050243761 0.050546698 0.050557401
0.050780803 0.050091632 0.050242286 0.050410986 0.050402381 0.050598387
0.050533168 0.050491691 0.049914204 0.050177872 0.050084405 0.050692871
0.050176006 0.049986474 0.049899325 0.050021604 0.050478302 0.049943529
0.049917195 0.049713064 0.04921918 0.049433768 0.049459755 0.049477223
0.049491365 0.049619313 0.04888235 0.049340542 0.049279984 0.048634008
0.048733089 0.048723858 0.048456967 0.048357245 0.04842104 0.048773125
0.048547722 0.048573859 0.048758302 0.048893254 0.048958451 0.048631165
0.048883419 0.04893598 0.049223367 0.049430493 0.049879242 0.049166694
0.049205758 0.04951033 0.049913406 0.049983572 0.04961491 0.049724549
0.049551275 0.049933758 0.050036397 0.049834155 0.050274432 0.05026184
0.050453193 0.050697502 0.050399844 0.049963042 0.050206624 0.050383747
0.050252672 0.050393894 0.050552171 0.050387491 0.04985971 0.050151207
0.05038536 0.050458387 0.050571669 0.050866593 0.050707873 0.050435528
0.050781157 0.050609302 0.050502855 0.05051028 0.050921392 0.050548024
0.050467569 0.050429065 0.050234899 0.05013926 0.050406739 0.050355244
0.050018102 0.050246932 0.050458971 0.050324131 0.050154157 0.050326843
0.050044205 0.050576165 0.050540667 0.050540667 0.050147399 0.050196007
0.050757177 0.050501481 0.050194826 0.050352171 0.050291188 0.050335206
0.050498474 0.050484952 0.05015393 0.050148733 0.050570123 0.050415028
0.050790161 0.050600056 0.050083302 0.050482672 0.05026757 0.050234482
0.050567441 0.050601222 0.050550114 0.051039957 0.050758246 0.050321303
0.050324395 0.050482757 0.050729152 0.050142705 0.050625753 0.050430257
0.050685797 0.050651465 0.05055378 0.050398141 0.050405744 0.050415494
0.049752656 0.050528474 0.049950499 0.050047472 0.050237164 0.050023701
0.050116383 0.050138358 0.049797419 0.049633179 0.04957515 0.049396068
0.049306776 0.049302317 0.049183525 0.049277764 0.049110763 0.049171846
0.048968446 0.048338339 0.048451144 0.048901606 0.048281148 0.048043333
0.048308205 0.048564024 0.048456579 0.048412412 0.048628479 0.048538238
0.048947658 0.048555568 0.048662703 0.048866481 0.049159255 0.049281742
0.04950542 0.049207956 0.049288351 0.049663104 0.049796883 0.049978316
0.049672622 0.049719919 0.049623094 0.049916219 0.050290558 0.050204992
0.050314821 0.050168075 0.05027378 0.050507911 0.050456852 0.049968448
0.050268505 0.050658785 0.05033876 0.050635893 0.050230622 0.050465062
0.050351098 0.050027303 0.050268844 0.050526142 0.050641675 0.050725281
0.050788388 0.050816625 0.050781995 0.050373081 0.050520573 0.050530136
0.05079845 0.050789341 0.050416935 0.050385285 0.05045357 0.050086301
0.050394204 0.050490204 0.04993562 0.050082926 0.050323181 0.050464831
0.050543092 0.050136793 0.049956162 0.051005527 0.050593242 0.050593242
0.050279021 0.050441969 0.050711926 0.050511327 0.050467201 0.050124656
0.050333001 0.050582167 0.050650127 0.050433725 0.049832106 0.050376669
0.050293226 0.050401166 0.050733048 0.050482348 0.050371002 0.050455794
0.05040909 0.05054361 0.050717462 0.050696116 0.050657071 0.050890878
0.050755642 0.050648134 0.050303273 0.050419256 0.050559163 0.050355054
0.050712366 0.050422076 0.05105469 0.050486971 0.050413206 0.050336797
0.050878711 0.050481264 0.049647372 0.050425146 0.050034177 0.050213162
0.050289791 0.050084613 0.049840227 0.050078683 0.049843196 0.049790613
0.04998339 0.049282089 0.048979465 0.049089875 0.048800755 0.048895579
0.04915873 0.048815098 0.048586626 0.048456408 0.048314165 0.048670299
0.048387222 0.047911242 0.048166018 0.048246019 0.04843292 0.048350342
0.04826704 0.048284549 0.048608616 0.048498739 0.048503403 0.048783377
0.04903448 0.049008541 0.049098074 0.049592998 0.049466044 0.049715273
0.049772359 0.049733322 0.049788501 0.049877662 0.049806986 0.049910478
0.05035283 0.050539304 0.050317753 0.050083827 0.050253507 0.050279442
0.050249025 0.050200172 0.050393675 0.050741803 0.050610434 0.050688088
0.049995456 0.050566941 0.050817467 0.050157182 0.050285626 0.050626032
0.0506684 0.05067084 0.050820708 0.050902449 0.050507903 0.050155297
0.050606545 0.050778523 0.050605599 0.050835911 0.05054732 0.050507944
0.050564248 0.050210133 0.050237022 0.050494675 0.05020814 0.050051022
0.050123129 0.050410356 0.050741185 0.050226901 0.050169896 0.050790317
0.050644111 0.050644111 0.050580017 0.050739612 0.050357375 0.050523333
0.05067724 0.050071035 0.050522178 0.05080273 0.050442945 0.050428912
0.050115932 0.050470207 0.049958445 0.050395731 0.050580665 0.05056959
0.050681539 0.050462663 0.050515052 0.050864361 0.05083878 0.050653264
0.050719429 0.050758276 0.050747339 0.050895728 0.050426293 0.050447561
0.050448023 0.050548289 0.050573546 0.050460339 0.051000379 0.050219156
0.050407752 0.050370574 0.050942566 0.050370544 0.05017972 0.050494399
0.050258774 0.05023624 0.050005805 0.050148197 0.049907334 0.050041333
0.049974706 0.049776606 0.050043471 0.049246654 0.048812889 0.048898041
0.048590004 0.048623018 0.04884395 0.048565075 0.048522796 0.048651978
0.04814608 0.048215453 0.048475426 0.047796026 0.048040666 0.048009004
0.048166491 0.048249599 0.047984026 0.048267104 0.048085839 0.048458576
0.048443448 0.048514355 0.048755612 0.04878075 0.04918272 0.049911302
0.049456626 0.049653955 0.049754545 0.049483877 0.049861502 0.050217133
0.050068792 0.049994469 0.050272029 0.050464172 0.050343812 0.050262026
0.050452523 0.050081134 0.050090976 0.050566778 0.050442137 0.050723791
0.050822232 0.05049314 0.050154373 0.050630525 0.050996497 0.050351325
0.05025132 0.05069349 0.050701823 0.050777193 0.050879195 0.050728917
0.05042088 0.050147898 0.050681822 0.050843261 0.050459743 0.050777748
0.050581802 0.050638203 0.050474964 0.050379734 0.050182994 0.050377436
0.050752833 0.050223015 0.050194476 0.050345961 0.050553612 0.050446857
0.050491083 0.05034047 0.050517008 0.050517008 0.050977521 0.050845962
0.050066467 0.050438255 0.050887 0.050153207 0.050659277 0.050773762
0.050202083 0.050665211 0.050516408 0.050302897 0.050050754 0.050550513
0.050436821 0.050698709 0.050717972 0.050403714 0.050628755 0.051090524
0.050968707 0.05063143 0.050870076 0.050682884 0.050592065 0.050959595
0.050580613 0.050508302 0.050382815 0.050656401 0.050573066 0.050477553
0.050624374 0.050132096 0.050530788 0.050493352 0.050703067 0.050386984
0.050866898 0.050476134 0.050341044 0.050164837 0.049969617 0.050143175
0.050192364 0.050132126 0.049883183 0.049532164 0.049685352 0.049385075
0.048928592 0.04874903 0.048637602 0.048435725 0.048502397 0.04850797
0.048561182 0.048501048 0.047900248 0.047957726 0.04827939 0.047837112
0.047965076 0.047764469 0.047581203 0.047909535 0.048055336 0.048283309
0.047719248 0.048344627 0.048393633 0.048239425 0.048566829 0.048651174
0.049470499 0.049730949 0.049211983 0.049561165 0.049753457 0.049524855
0.050002512 0.050500162 0.05022084 0.050118499 0.050195124 0.050167829
0.05039344 0.050561525 0.050607517 0.050147731 0.05025135 0.050783139
0.05048544 0.050668489 0.050762653 0.050287161 0.050538044 0.050647553
0.050881803 0.050642781 0.050351236 0.050803531 0.05081366 0.050811585
0.050845578 0.050540641 0.050621364 0.050451599 0.050664004 0.050609078
0.050441172 0.050672516 0.050354797 0.050461724 0.050347272 0.050496675
0.050419997 0.050329112 0.051091239 0.05043599 0.050558195 0.050552517
0.050170444 0.050488595 0.050601147 0.050224077 0.050381195 0.050381195
0.051109191 0.050760258 0.05030502 0.050387271 0.050973032 0.050368778
0.050612044 0.050419301 0.05037396 0.050815195 0.050564852 0.050260279
0.050428499 0.05075217 0.050433766 0.050786529 0.050712846 0.050463382
0.050748821 0.051008109 0.050857071 0.05065804 0.051025156 0.050598271
0.050595295 0.050865632 0.050605882 0.05063035 0.050363164 0.050723389
0.050729774 0.050416283 0.050452188 0.050318912 0.05062148 0.050592735
0.050490402 0.050647371 0.051039428 0.05029843 0.050262269 0.050210562
0.05044499 0.050120488 0.050334379 0.050108153 0.049592849 0.049395952
0.049324967 0.049571235 0.049199685 0.048738793 0.048722982 0.048242349
0.048353218 0.048460789 0.04840368 0.048021689 0.047633734 0.048000306
0.047894657 0.047950044 0.04776727 0.047456771 0.047139045 0.047414597
0.048125833 0.047979832 0.047689021 0.048174895 0.048302475 0.048209835
0.048577555 0.048623137 0.04936986 0.04924209 0.049116492 0.049527545
0.049753495 0.049749449 0.050122298 0.050453126 0.050234798 0.050233513
0.050187059 0.049990214 0.050418608 0.050649513 0.050604939 0.050661877
0.050659627 0.050736211 0.050674904 0.05055384 0.050526254 0.050291494
0.050839718 0.050643191 0.050686963 0.051021382 0.050686847 0.050920274
0.050857898 0.050628394 0.050639346 0.050489552 0.050872657 0.050878432
0.050577924 0.050439138 0.050508041 0.050608724 0.050151803 0.050171226
0.050450616 0.050590288 0.05070414 0.050463103 0.050919626 0.050563395
0.050769791 0.050912526 0.049972016 0.050301809 0.05054171 0.050420817
0.05046102 0.05046102 0.050808083 0.050705068 0.050875396 0.05053293
0.05080742 0.050791033 0.0504237 0.050147451 0.050815806 0.050552648
0.050514244 0.050470181 0.050654609 0.050832115 0.050543159 0.050810456
0.050833374 0.050836369 0.050797686 0.050696295 0.050493136 0.050764162
0.051001746 0.050588239 0.050877806 0.050530247 0.050463859 0.050883781
0.050478011 0.050841279 0.050783515 0.050393961 0.050528739 0.050584625
0.05069625 0.050650019 0.050534271 0.050829168 0.050853185 0.050313167
0.050239362 0.050304018 0.050923023 0.050239522 0.050127596 0.049847007
0.049465839 0.049529154 0.049231689 0.04967517 0.049457226 0.04881892
0.048676167 0.048117936 0.048345488 0.048286252 0.048096444 0.047634419
0.047441103 0.047919855 0.047428168 0.04769738 0.047358174 0.047082584
0.047163993 0.047130484 0.047923829 0.047491021 0.047747117 0.047963344