# vtk DataFile Version 3.0
axinsert(project(permute(???,2,0,1),0,L2),2)
ASCII
DATASET STRUCTURED_POINTS
DIMENSIONS 128 256 1
ORIGIN 0 0 0
SPACING 1 1 1
POINT_DATA 32768
SCALARS nrrd82309 float
LOOKUP_TABLE default
0.050020244 0.049950007 0.049982 0.050053 0.050056163 0.05001349
0.049995188 0.049992077 0.049927335 0.04997116 0.050036158 0.050003003
0.050007176 0.049958006 0.050016001 0.049997073 0.049965035 0.050007004
0.04999001 0.049993012 0.050009023 0.050017025 0.049986001 0.049983013
0.049997102 0.050065074 0.050032262 0.049991004 0.050027329 0.049998008
0.049955435 0.049924999 0.049991 0.04998501 0.050005004 0.050066072
0.050066289 0.049994111 0.049942352 0.049961027 0.050016154 0.050016012
0.050051112 0.050033271 0.049934525 0.04996701 0.050015118 0.049984045
0.050031003 0.049993113 0.049992025 0.049981061 0.050032016 0.049999196
0.050012 0.050009187 0.049962051 0.04998301 0.050036002 0.05001713
0.049971111 0.050001018 0.050026197 0.049999017 0.049979329 0.049918015
0.049991034 0.050014 0.050014086 0.050058033 0.05001305 0.050012019
0.050004032 0.049991004 0.04999302 0.049990032 0.049980018 0.049984999
0.05004105 0.049997203 0.049991999 0.050017092 0.049986076 0.049965043
0.049980015 0.049995024 0.049997032 0.050013043 0.050055999 0.050007425
0.049931005 0.050004009 0.050050031 0.05001102 0.049967099 0.050003037
0.049998082 0.050022125 0.050026096 0.049956147 0.049970027 0.050011013
0.050038032 0.049975168 0.050009232 0.050019491 0.049986113 0.050029252
0.049984999 0.049988084 0.049964018 0.049991045 0.050039001 0.050007019
0.050000999 0.050023008 0.050004121 0.049995005 0.049976353 0.050000075
0.050015137 0.050001018 0.050010007 0.049993016 0.049987003 0.049984001
0.050011005 0.050011005 0.049997058 0.049892016 0.04999106 0.050156005
0.050067004 0.049969032 0.050007008 0.049984004 0.049896017 0.049990028
0.050010018 0.050009083 0.050019022 0.049956016 0.05002204 0.049962033
0.049970064 0.050009008 0.049975 0.049986001 0.049963001 0.050030064
0.05005201 0.049972024 0.049950093 0.050117005 0.050101001 0.050006054
0.049996007 0.050032999 0.049953051 0.049923167 0.050030291 0.0499826
0.049969431 0.050062221 0.050113019 0.049977224 0.049933009 0.050010759
0.050033379 0.050023627 0.050048325 0.050066426 0.049908213 0.049920134
0.050019056 0.049986377 0.049995162 0.050062846 0.049972415 0.049936559
0.049998291 0.05005718 0.050013904 0.049947254 0.049971208 0.049953774
0.050102115 0.050063845 0.049933262 0.050073672 0.049981713 0.050009213
0.049993757 0.049807377 0.050017659 0.050002631 0.050037466 0.050050426
0.050027069 0.04998944 0.049906 0.050022088 0.050023008 0.050028253
0.049981058 0.050067466 0.050105561 0.04993245 0.049944427 0.050030246
0.04998228 0.049933445 0.049987283 0.049988486 0.049924321 0.050046239
0.05016752 0.049970366 0.049884196 0.050046392 0.05004264 0.049985033
0.049941491 0.050028041 0.049959596 0.049986091 0.050101027 0.04995722
0.049951293 0.049977306 0.050034016 0.049994111 0.050025132 0.050033025
0.049962208 0.050019022 0.050003041 0.049989127 0.049934112 0.05004216
0.050056506 0.049933095 0.050002005 0.050023068 0.050050016 0.050047178
0.04994319 0.049982242 0.049941145 0.049953006 0.049995016 0.049986001
0.050014004 0.050004009 0.050016999 0.050016999 0.049956147 0.049977005
0.050019 0.050109003 0.050023098 0.049970999 0.049993005 0.049992051
0.04998102 0.050014 0.049958024 0.050033011 0.049996067 0.04997405
0.050030015 0.049962003 0.049987029 0.049951017 0.04999103 0.050011002
0.049954999 0.050033029 0.050113007 0.049980048 0.049939018 0.050060127
0.050113 0.050041169 0.049965017 0.050064176 0.05001507 0.050006356
0.050081186 0.049997594 0.049931202 0.049957354 0.050048057 0.050011188
0.050081313 0.05007517 0.049972441 0.05001568 0.050009485 0.050031655
0.050032292 0.049951699 0.050026722 0.050003894 0.04996084 0.050074928
0.049951743 0.049996633 0.049959701 0.050057761 0.050028916 0.0499033
0.05002597 0.049956791 0.050048161 0.0500753 0.049976036 0.050051875
0.049903691 0.050021954 0.050002843 0.04990565 0.0500599 0.049979854
0.049994651 0.049937353 0.050015777 0.049917329 0.049886368 0.050033547
0.050061382 0.050029647 0.050032236 0.050105806 0.050029166 0.049991105
0.049954999 0.050010454 0.050028834 0.049947832 0.050018802 0.050007962
0.049890082 0.050038051 0.050121844 0.049966507 0.049933091 0.050045602
0.049952757 0.049980335 0.049957842 0.050007273 0.049977526 0.049893629
0.050130129 0.050035737 0.04996334 0.049935576 0.049949188 0.050027106
0.049979199 0.050036028 0.049988225 0.049981121 0.050063182 0.050012317
0.049950264 0.050049312 0.049997114 0.049883109 0.050015107 0.05003918
0.050075252 0.050067168 0.049948197 0.049964108 0.049889173 0.04992912
0.049984138 0.049943123 0.050032005 0.050033092 0.049965005 0.049965005
0.049957003 0.050008003 0.050001003 0.05006 0.050038058 0.050043017
0.049963012 0.050030004 0.050006215 0.049986001 0.049957108 0.050025005
0.04998203 0.04993201 0.050066002 0.049987007 0.049963042 0.049902003
0.050014 0.050037056 0.050010022 0.050054241 0.05007701 0.05001102
0.049994171 0.050054297 0.050109223 0.050043326 0.049994171 0.050082486
0.050014172 0.049996603 0.050084174 0.049998563 0.049903214 0.04997642
0.050054427 0.050066553 0.050154001 0.050054815 0.049956765 0.050046258
0.050026082 0.050012447 0.050072942 0.05000573 0.050038598 0.050020192
0.049999788 0.05004555 0.049940635 0.050057903 0.050002173 0.049988542
0.050067183 0.049950242 0.050040271 0.049987435 0.049941007 0.050022267
0.050020874 0.05001181 0.049866598 0.050029978 0.049943388 0.049970042
0.050054178 0.049978871 0.04993102 0.049896464 0.050034713 0.049898576
0.049959868 0.050019313 0.050055679 0.049977936 0.050032053 0.050051644
0.049932621 0.0501041 0.05004549 0.049999669 0.050063238 0.049926057
0.050014216 0.050025854 0.049947377 0.050021529 0.050046094 0.049994819
0.049923439 0.049992777 0.049979731 0.049991325 0.04992279 0.049993936
0.050036792 0.049867515 0.050089724 0.050050784 0.04992367 0.049924444
0.049891543 0.050009161 0.049981456 0.050040375 0.050014485 0.049993448
0.050080512 0.050016526 0.049955528 0.050012603 0.049968302 0.049904425
0.050017476 0.050054252 0.050059326 0.050045155 0.049946204 0.049969122
0.049925212 0.049931291 0.049994167 0.04990226 0.049995057 0.050001089
0.049903002 0.049903002 0.049958017 0.049977999 0.050002001 0.050053012
0.050060999 0.050075058 0.049942017 0.05009602 0.050010186 0.049959004
0.049948085 0.049986999 0.049979016 0.049921006 0.050088011 0.050022028
0.049977105 0.049889065 0.050044131 0.050059158 0.050036188 0.050021213
0.050004024 0.050074015 0.050074287 0.050082285 0.050123494 0.050020404
0.050015412 0.050065536 0.050033286 0.050000794 0.050069444 0.050007761
0.049901616 0.050026979 0.050079163 0.050118133 0.050138764 0.050023854
0.05003928 0.050078206 0.050031625 0.050017487 0.050069012 0.050043322
0.050075311 0.050028339 0.05001061 0.050055571 0.049989872 0.050059076
0.050013561 0.049937632 0.050088137 0.050037839 0.050048158 0.050019596
0.049873829 0.049945701 0.050048463 0.049997538 0.049834948 0.049992938
0.049883347 0.049998969 0.05002154 0.049975302 0.049915377 0.049909431
0.050045632 0.049935594 0.050015002 0.050010122 0.050013758 0.049931355
0.049995162 0.050014842 0.049884994 0.050129652 0.050112635 0.049979877
0.05009241 0.049939219 0.049992755 0.050023973 0.049991678 0.049999397
0.050014451 0.050017197 0.04992158 0.04993327 0.050043974 0.049994256
0.049888041 0.050016008 0.050050266 0.049890682 0.050018694 0.050022896
0.049888235 0.049911696 0.049869098 0.050010603 0.050049189 0.050042316
0.05000513 0.049992185 0.050079003 0.050011989 0.049964797 0.049997143
0.04995868 0.049934104 0.049967889 0.050002452 0.05004238 0.050023336
0.049930122 0.049968127 0.049954094 0.0499193 0.049972054 0.049891133
0.049963031 0.04995003 0.049876027 0.049876027 0.049957003 0.049959
0.050039001 0.050065063 0.050082013 0.050078098 0.049930029 0.05012707
0.049981039 0.049941003 0.049949016 0.049974009 0.049998011 0.049932085
0.050088022 0.05005607 0.049993124 0.049914088 0.050063383 0.050056111
0.050034314 0.049959097 0.049974069 0.050132092 0.050125349 0.050110277
0.050144374 0.050021317 0.050029457 0.050046518 0.050067466 0.050035886
0.050080925 0.050033189 0.049940318 0.050071899 0.050072901 0.050149858
0.050109308 0.049993616 0.050130825 0.050096761 0.050048031 0.0500663
0.050058056 0.050046384 0.050132163 0.050053924 0.050021041 0.050075423
0.050059233 0.050032239 0.049972661 0.049939618 0.050092243 0.050122272
0.050034892 0.050027635 0.049883019 0.049907427 0.050028652 0.049948201
0.049827188 0.049963348 0.049850941 0.049999624 0.049967613 0.049974542
0.049941335 0.049932931 0.050048608 0.049940854 0.050016001 0.05000158
0.049964551 0.04991693 0.049960554 0.050029498 0.049899012 0.050069023
0.050080627 0.049973018 0.050117701 0.049969256 0.049981073 0.050013259
0.050005939 0.04998849 0.050017919 0.050015561 0.04993375 0.049904853
0.050100565 0.049999401 0.049893651 0.050031807 0.049992755 0.049926825
0.049976181 0.049995422 0.049883828 0.04990961 0.049871869 0.050028775
0.050099958 0.050033115 0.049995679 0.049979173 0.050049491 0.049985439
0.049976006 0.049992673 0.04995881 0.049950548 0.049892902 0.049952768
0.050028503 0.049960475 0.049873065 0.049955089 0.04998403 0.049907241
0.049932007 0.049885072 0.049938001 0.049897011 0.049898066 0.049898066
0.049959008 0.049966007 0.050081 0.050071049 0.050086007 0.050088044
0.049931027 0.050100047 0.049948007 0.049938016 0.049956005 0.049981024
0.050037 0.04994214 0.050075002 0.05008807 0.04998504 0.049973041
0.050059371 0.050035037 0.050036281 0.049925059 0.050006237 0.05017826
0.050144523 0.050092399 0.050136235 0.050041173 0.050065354 0.050064545
0.050107721 0.050084941 0.050119329 0.050065391 0.049992826 0.050103214
0.050070327 0.050169647 0.050103795 0.049977832 0.050161716 0.050103061
0.050076783 0.050124869 0.050075814 0.05005981 0.05019566 0.050106466
0.050050188 0.050072387 0.050108917 0.050013553 0.04991971 0.049978796
0.050078828 0.050146867 0.050011672 0.050021268 0.049936701 0.049916737
0.049976312 0.049878094 0.049858611 0.0499692 0.049833089 0.049978524
0.049919952 0.049962349 0.049949229 0.049941923 0.050035235 0.049889442
0.049981855 0.049972605 0.049940001 0.049934395 0.049941443 0.050062086
0.049944922 0.049994081 0.049976859 0.049990233 0.050130196 0.04998026
0.049993247 0.050009497 0.050020296 0.049997892 0.050021511 0.049999997
0.049957257 0.049909495 0.050111484 0.049997061 0.049932335 0.050027788
0.049942233 0.049945425 0.049960367 0.049992312 0.049905367 0.049925856
0.049883597 0.050030123 0.050088309 0.05001251 0.050009891 0.049972907
0.049990885 0.049945697 0.049993295 0.049965929 0.049939733 0.049954414
0.049847737 0.049930066 0.04998254 0.049879417 0.049806084 0.0499391
0.05001704 0.049886186 0.049899001 0.049875058 0.049908999 0.049860004
0.049928024 0.049928024 0.049954049 0.049994003 0.05009 0.050071999
0.050083 0.050096001 0.049936999 0.050047003 0.049955059 0.049950041
0.049959026 0.049993049 0.050065011 0.049949091 0.050054003 0.050104026
0.049968999 0.050045006 0.050060172 0.050030023 0.050055221 0.049944099
0.050062519 0.050206378 0.050163675 0.050037615 0.050077252 0.050054122
0.050133329 0.050124604 0.050144996 0.050127927 0.050149471 0.050092202
0.050038893 0.050128888 0.050114457 0.050201144 0.050122347 0.049990721
0.050152984 0.050103664 0.050117061 0.050159954 0.050127789 0.050119743
0.050248936 0.050159004 0.050083395 0.050057825 0.050133042 0.050013311
0.049882375 0.050007317 0.05004568 0.050110858 0.049996175 0.050029688
0.049982712 0.049938511 0.049932167 0.04983326 0.049913324 0.049990673
0.04981586 0.049925935 0.049882576 0.049930736 0.049906511 0.049939178
0.050008345 0.049825504 0.049938139 0.049915574 0.049940009 0.049965646
0.049927562 0.050077271 0.049994599 0.049963135 0.049877405 0.050011761
0.05012174 0.049974546 0.050013684 0.050018728 0.050052937 0.05001235
0.050027121 0.049991652 0.049986079 0.049927242 0.050062511 0.049975943
0.049972963 0.050017487 0.049954832 0.049946252 0.049956791 0.050003272
0.049930885 0.049940687 0.049892064 0.050007906 0.050040409 0.049989883
0.050033003 0.049980126 0.049923249 0.049910914 0.050005775 0.049901877
0.049895789 0.049950153 0.049842715 0.049915131 0.04990752 0.049817346
0.049772192 0.049925212 0.050025128 0.049849123 0.049875017 0.04985803
0.049880002 0.049857002 0.049931005 0.049931005 0.049932063 0.050035998
0.050065 0.050073043 0.050092999 0.050080013 0.049949024 0.050011002
0.049996067 0.049962066 0.049961049 0.049997073 0.050066046 0.049960036
0.050033003 0.050098002 0.049961016 0.050107002 0.050081041 0.050055049
0.050087154 0.050004199 0.050101634 0.05020937 0.050199538 0.049991693
0.050000366 0.050062224 0.050204482 0.050196622 0.050170198 0.050150834
0.050163377 0.050114036 0.050080694 0.050162658 0.050195482 0.0502542
0.050150685 0.050031994 0.050157968 0.050111748 0.050176427 0.050185848
0.050191488 0.050207987 0.050275359 0.050189469 0.050102122 0.050051849
0.050145317 0.050025117 0.049875099 0.049997304 0.05000012 0.050064676
0.050001875 0.050055131 0.049990531 0.049937513 0.049907949 0.049824629
0.04995494 0.049994264 0.049795501 0.049840488 0.049844466 0.049891084
0.049835369 0.049932215 0.049980201 0.04978957 0.049899694 0.049857829
0.049949814 0.049989916 0.049908243 0.050063398 0.050030734 0.049971875
0.049837992 0.050027765 0.050101228 0.049977385 0.050015457 0.050034273
0.050088763 0.050016832 0.050048657 0.049998354 0.050010845 0.049947023
0.049986251 0.049945481 0.049993731 0.050014745 0.050013695 0.049945038
0.049958736 0.050007019 0.049939558 0.049942937 0.049899478 0.049972255
0.049999651 0.04997145 0.050033294 0.04999806 0.049871672 0.049890328
0.04999442 0.049820814 0.04984919 0.049936127 0.049847938 0.049888026
0.049835559 0.049786419 0.049768373 0.049910367 0.049988277 0.049809065
0.049849108 0.049832005 0.04986703 0.049871005 0.049902041 0.049902041
0.049905024 0.050072003 0.050027002 0.050073095 0.050117001 0.050046027
0.049969058 0.050007999 0.050042037 0.049957033 0.049973056 0.049985062
0.050050098 0.049986012 0.050016008 0.050082002 0.049972031 0.050148014
0.050110001 0.050092064 0.050124068 0.050075237 0.050112415 0.050187282
0.050234217 0.049995437 0.049966428 0.050082434 0.050237704 0.050249517
0.050186176 0.050151717 0.050181143 0.050134081 0.05012244 0.050216772
0.050271507 0.05031104 0.050184481 0.050090976 0.050207078 0.050140943
0.050254337 0.050234664 0.050250605 0.050287776 0.050277114 0.050197627
0.050106235 0.050066885 0.05015422 0.050047204 0.049898416 0.049964599
0.049965195 0.050051652 0.05002518 0.050068371 0.049954873 0.049907342
0.049888186 0.049830094 0.049958188 0.049960416 0.049773317 0.049742572
0.049798366 0.049852762 0.04977626 0.049929481 0.049955122 0.049783774
0.049875095 0.04983541 0.049956124 0.050000422 0.049883246 0.050026808
0.050044212 0.049983896 0.049866337 0.050043043 0.050079584 0.05000072
0.049998239 0.05004843 0.050106559 0.050007589 0.050071154 0.05000988
0.050039366 0.04996375 0.049923688 0.049938686 0.049999915 0.050016966
0.050065894 0.049949795 0.049958229 0.049988639 0.049925506 0.049932986
0.049919181 0.049934737 0.049977399 0.049955148 0.050000992 0.050016124
0.049854189 0.0498861 0.049953196 0.049749035 0.049813014 0.049907446
0.049831383 0.049842056 0.049792703 0.049772676 0.049761575 0.049894478
0.049919438 0.049781058 0.049818292 0.049802005 0.049882133 0.049866032
0.049850043 0.049850043 0.049894001 0.050078005 0.049991008 0.050067097
0.050141022 0.050015051 0.049996082 0.050023004 0.050066032 0.049940001
0.049992081 0.049963016 0.05002819 0.050023001 0.050013047 0.050071001
0.049995065 0.050170023 0.050124019 0.05012301 0.050162002 0.050127108
0.050115097 0.050151136 0.050241012 0.050050072 0.050002292 0.050119411
0.050226662 0.050272275 0.050209817 0.050145559 0.050220832 0.050158124
0.0501692 0.05028794 0.050323397 0.050344877 0.050223839 0.050159872
0.050293516 0.050200552 0.050335664 0.050320137 0.050303139 0.050336286
0.050268821 0.0501973 0.050113987 0.050100055 0.050164554 0.050076574
0.049942024 0.049948778 0.049962096 0.050070308 0.050042789 0.050046489
0.049898025 0.049859989 0.049848657 0.049825627 0.049925063 0.04989291
0.049749196 0.049658835 0.049737867 0.049808603 0.049747512 0.049925022
0.049923234 0.049787022 0.049869198 0.049860198 0.049957175 0.049997058
0.049856897 0.049978402 0.050040599 0.049982276 0.04993457 0.05005702
0.050068777 0.050040022 0.049985807 0.050067034 0.050098289 0.049991708
0.050069895 0.050017472 0.050075088 0.049974419 0.049899399 0.049970347
0.050014492 0.050019048 0.050076388 0.049967781 0.049952082 0.049953479
0.049893927 0.049915429 0.049960434 0.049907725 0.04996099 0.049935076
0.049952358 0.050016779 0.04986893 0.049893338 0.049891133 0.049700741
0.049784172 0.049857132 0.049794979 0.049781483 0.049771003 0.04975912
0.04972779 0.049878627 0.049848609 0.049768161 0.049793474 0.049777079
0.049906272 0.049821131 0.049778018 0.049778018 0.049905002 0.050051
0.049953029 0.050051089 0.050147094 0.049999114 0.050022129 0.050041042
0.050064091 0.049922068 0.050013166 0.049936019 0.050004356 0.050054096
0.050034225 0.050070014 0.050017189 0.050181001 0.050105143 0.050143048
0.050198067 0.050155003 0.050127015 0.050119001 0.05020706 0.050129067
0.050085042 0.050168075 0.050202277 0.050277043 0.050254293 0.050155319
0.050277479 0.050193861 0.050224926 0.05036379 0.050363999 0.050356705
0.050263148 0.050235596 0.050390862 0.050288193 0.050402652 0.050423179
0.050360411 0.050365489 0.050275777 0.050205596 0.050139599 0.0501411
0.050178424 0.050109874 0.049993828 0.049972527 0.049992908 0.050087441
0.050036784 0.049999665 0.049850401 0.049808815 0.049780805 0.049805194
0.04987463 0.049812999 0.04971553 0.04960148 0.04966687 0.049756035
0.049739212 0.049909651 0.049879447 0.049782269 0.049887288 0.049909923
0.049947545 0.049980544 0.04982879 0.049929876 0.050033707 0.049981806
0.050002955 0.050064262 0.050076053 0.050084796 0.049995299 0.050092436
0.050079107 0.049985088 0.050052203 0.050026745 0.050106578 0.049986385
0.049918186 0.05001941 0.050045457 0.050018553 0.050048236 0.049993262
0.049942076 0.049918018 0.049854927 0.04989985 0.050015427 0.049903378
0.049941543 0.049908526 0.049909543 0.04998542 0.049896065 0.049906079
0.049819306 0.04967102 0.049755495 0.049789242 0.04975475 0.049715467
0.049744554 0.049737759 0.049677178 0.049861029 0.049793828 0.049754519
0.049777579 0.049754385 0.049905341 0.049742229 0.049694002 0.049694002
0.049927 0.050007004 0.049910065 0.050023098 0.0501302 0.049994238
0.050040245 0.050044179 0.050049298 0.049906295 0.050028369 0.049906243
0.049971625 0.050063536 0.050074674 0.050081242 0.050030533 0.05018618
0.050063543 0.050156478 0.050217461 0.050168462 0.050151397 0.050108258
0.050150376 0.050193675 0.050169107 0.050224125 0.050202001 0.050282035
0.050319005 0.050194062 0.050335161 0.050242327 0.05029856 0.050433248
0.050416395 0.050363299 0.050298646 0.050318096 0.050479401 0.050393101
0.050456438 0.05051972 0.050424546 0.05039705 0.050318249 0.050235651
0.050181109 0.050181806 0.050198119 0.050136942 0.050047267 0.050031815
0.050040729 0.050072223 0.050012007 0.049955979 0.049825214 0.049756885
0.049696494 0.049777821 0.049819946 0.049740318 0.049669165 0.049562201
0.049599718 0.049703013 0.049726132 0.049871195 0.049823653 0.049774524
0.049918562 0.049952291 0.049928393 0.049946725 0.049801294 0.049898185
0.050035842 0.050002381 0.050046757 0.050062064 0.050106749 0.050132241
0.050025176 0.050125379 0.050074317 0.050002765 0.050048437 0.050046217
0.050120231 0.050011296 0.049966641 0.050049275 0.050078094 0.050015278
0.050005861 0.050016623 0.049938422 0.049896803 0.049823727 0.049893972
0.050060477 0.04991594 0.049918793 0.049877916 0.04988645 0.049925204
0.049912851 0.049915314 0.049743891 0.049646925 0.049720902 0.049714789
0.04972383 0.049653996 0.049695525 0.049708545 0.04963094 0.049827829
0.049752161 0.04972624 0.049755652 0.049726792 0.049859334 0.049648229
0.049614999 0.049614999 0.049941003 0.049961023 0.049869113 0.049987137
0.050093301 0.049983423 0.050044451 0.050024483 0.050028782 0.049902719
0.05002876 0.049879808 0.049927071 0.050048403 0.050110441 0.050101139
0.050039224 0.050180007 0.050023481 0.050161451 0.050205469 0.050172962
0.050183501 0.050125487 0.050108124 0.050220847 0.050231956 0.050282087
0.050252382 0.05029637 0.050392218 0.050260033 0.050379999 0.050302003
0.050397161 0.050499532 0.050487738 0.050387457 0.050339252 0.050410379
0.050551057 0.050502829 0.050510947 0.050593544 0.050490148 0.050445732
0.050400466 0.050289493 0.050234348 0.050227292 0.050225858 0.050155856
0.050104868 0.050104816 0.050082449 0.050026815 0.049989965 0.049932167
0.049808074 0.049699802 0.049619082 0.049744334 0.049761117 0.049679291
0.049610641 0.049521599 0.049547847 0.049663015 0.049692784 0.049809441
0.0497647 0.049774755 0.049944948 0.049968176 0.049905065 0.049901687
0.049784984 0.049897674 0.050051428 0.050049152 0.05006006 0.050059192
0.05016122 0.050178949 0.050068822 0.050163563 0.050101314 0.050053235
0.050080821 0.050078064 0.05011715 0.050059803 0.050028667 0.050050482
0.050098103 0.050013881 0.049971845 0.050028473 0.049950853 0.049894243
0.049813624 0.049902357 0.050070766 0.049923714 0.049894292 0.049847428
0.049875781 0.049849786 0.049905431 0.049913879 0.049676068 0.049614456
0.049679495 0.049644772 0.049697332 0.049600776 0.049621984 0.049675468
0.049604185 0.049764961 0.049713682 0.0496751 0.049704835 0.049683969
0.049774315 0.049553148 0.049550999 0.049550999 0.049929023 0.049916122
0.049839206 0.049954262 0.050042395 0.049956698 0.050027795 0.049976032
0.050004616 0.049910437 0.050013453 0.049857751 0.049879812 0.050014529
0.050111532 0.050116006 0.050050527 0.050154801 0.050002247 0.050158057
0.050160363 0.050167434 0.05021362 0.050164968 0.05010771 0.050221503
0.050274689 0.05033971 0.050343622 0.050326154 0.050457098 0.050342526
0.050409269 0.050368309 0.050515011 0.050576035 0.050569192 0.050440479
0.050406814 0.050514545 0.050613601 0.050606702 0.050583024 0.050649673
0.050554667 0.050515786 0.050508548 0.050365988 0.050303217 0.050287802
0.050261632 0.050175816 0.05016093 0.050164681 0.050110467 0.049982123
0.049989939 0.049921677 0.049775392 0.049634077 0.049565118 0.049697641
0.049689334 0.049621735 0.049539752 0.049466528 0.0495154 0.049642507
0.049636874 0.049733274 0.049711611 0.049790755 0.049951103 0.049957585
0.049893714 0.049864639 0.049799193 0.049935631 0.050074648 0.050113399
0.050056841 0.050069373 0.050228648 0.050226573 0.050123565 0.05020896
0.050163597 0.050131105 0.050141364 0.050116941 0.050115131 0.05012612
0.050091572 0.050039321 0.050102044 0.050013192 0.049954731 0.050029479
0.049973093 0.049901377 0.049831979 0.049919706 0.05003918 0.049905811
0.049865007 0.04982296 0.049862459 0.049774673 0.049875848 0.04989953
0.049621884 0.049567528 0.049627516 0.04958418 0.049665362 0.049555603
0.049532861 0.049638562 0.049592704 0.049675152 0.049666397 0.049606755
0.049610231 0.049614895 0.049672339 0.049464092 0.049498003 0.049498003
0.049882066 0.049864344 0.049817398 0.049932532 0.049989562 0.049902104
0.049988408 0.049904905 0.049974769 0.049924564 0.049991529 0.049838092
0.049844004 0.049971845 0.050067089 0.05010666 0.050060838 0.050117675
0.050006021 0.05015146 0.050101243 0.05015327 0.050228741 0.050210364
0.050153561 0.050221644 0.050312165 0.050395627 0.050441716 0.050366692
0.050508834 0.05042886 0.050433341 0.05043738 0.050632514 0.050670259
0.05064901 0.050530002 0.050516307 0.050632674 0.050680865 0.050699741
0.050672695 0.050701708 0.050625309 0.050605997 0.050622616 0.050459087
0.050400849 0.050369266 0.050306294 0.050206102 0.050212245 0.050198656
0.050130486 0.049972098 0.050012141 0.049909394 0.049718026 0.049568716
0.049532931 0.049628824 0.049599875 0.049554929 0.049457829 0.049394291
0.049495012 0.049633309 0.049564634 0.049656712 0.049664509 0.049810357
0.049936835 0.049936812 0.049909417 0.049859691 0.049855873 0.050005041
0.050106294 0.050185252 0.050062969 0.050106026 0.050296988 0.050278451
0.050197486 0.050266247 0.05024742 0.050221574 0.050203878 0.050156552
0.050131027 0.050196934 0.050152645 0.050047573 0.050104883 0.050013591
0.049957592 0.050024882 0.049989469 0.049905818 0.049867976 0.049931735
0.049975362 0.049856886 0.049829431 0.049801297 0.049831692 0.04970869
0.049828168 0.049870327 0.049589131 0.049507886 0.049569231 0.049531039
0.049617939 0.049508564 0.049435012 0.049593963 0.049580105 0.049570199
0.049598228 0.049532034 0.049484808 0.049514808 0.0495754 0.049386092
0.049437027 0.049437027 0.04980015 0.049800608 0.049793676 0.049916975
0.049941905 0.049819656 0.049926355 0.049826048 0.049938075 0.049935065
0.049967073 0.049816862 0.049819779 0.049921587 0.049985405 0.050063733
0.050057456 0.050080571 0.050026737 0.050144963 0.050059069 0.050135132
0.050219648 0.05024416 0.050227799 0.050246552 0.050355352 0.050448045
0.050513625 0.050404567 0.050551672 0.050513443 0.050472472 0.050510194
0.050728932 0.050773639 0.050728608 0.050655592 0.050664004 0.050770063
0.050769895 0.050781865 0.050771177 0.05077048 0.050716028 0.050716009
0.050736614 0.050567981 0.050532367 0.050469309 0.050369643 0.05025059
0.050254464 0.050212115 0.050156109 0.050005153 0.050038885 0.049879
0.049649559 0.049518351 0.049504325 0.049533114 0.049493831 0.049475253
0.049367294 0.049310248 0.049468201 0.049617663 0.049483452 0.049586039
0.049619537 0.049812786 0.049910299 0.049923196 0.04996128 0.049896885
0.049955826 0.050094448 0.05014896 0.050262515 0.050100252 0.050176021
0.050357915 0.050341621 0.05029643 0.050337262 0.050336625 0.050304286
0.050251991 0.050200928 0.050169811 0.05025778 0.050210871 0.050092783
0.050116912 0.050020862 0.049978137 0.050018221 0.049983583 0.049902182
0.049902465 0.049920209 0.049902018 0.049793683 0.049788352 0.04977636
0.049779851 0.049653322 0.049766399 0.049819704 0.049568579 0.049448323
0.049512707 0.049480364 0.049555227 0.049451903 0.049335442 0.04952782
0.049547169 0.049462087 0.049503025 0.049458135 0.049351353 0.049387895
0.049487464 0.049315136 0.049352061 0.049352061 0.049689244 0.049726706
0.049752925 0.049890362 0.049897481 0.049717233 0.049848538 0.049752221
0.049892329 0.049926754 0.049937092 0.049788151 0.04979929 0.049862105
0.049888704 0.04999008 0.050030105 0.050054148 0.050049219 0.050139699
0.050053846 0.050123658 0.050193194 0.050254278 0.050301161 0.050297718
0.050408509 0.050497528 0.050544597 0.050434232 0.050593786 0.050601583
0.050541718 0.05058983 0.050796304 0.050869294 0.050812382 0.050803404
0.050836373 0.050920203 0.050890092 0.050868176 0.05087382 0.050869219
0.050833724 0.050843757 0.050859325 0.050695848 0.050690677 0.050583668
0.050465502 0.050311901 0.050299283 0.050224297 0.050194748 0.05006716
0.050044455 0.04982844 0.04959584 0.049490966 0.0494617 0.049416639
0.0493741 0.049390886 0.049271364 0.049226578 0.049418159 0.04958193
0.049402479 0.049523503 0.049574733 0.049790367 0.049887925 0.049933027
0.050044484 0.049967214 0.05008186 0.050191469 0.050215419 0.050351836
0.050180662 0.050274756 0.050414115 0.050420769 0.050416049 0.050424293
0.050420798 0.050371654 0.050292812 0.050254729 0.050225046 0.050303854
0.050267249 0.050172064 0.050147843 0.050038815 0.050010078 0.050008878
0.049952198 0.049892701 0.049914382 0.049879566 0.049838752 0.049736466
0.049746528 0.049738467 0.049718559 0.049605455 0.049688816 0.049740374
0.049542412 0.049401965 0.049465958 0.049433127 0.049481209 0.049380753
0.049236219 0.049426176 0.049479041 0.049356911 0.049383681 0.04937936
0.04922761 0.049247194 0.049393516 0.049247172 0.049245078 0.049245078
0.049565282 0.049651563 0.04969199 0.049833421 0.049845185 0.049605623
0.049756717 0.049690146 0.049832534 0.049885433 0.04988867 0.049748093
0.049773682 0.049792562 0.049796909 0.049903683 0.049982153 0.050036896
0.050057355 0.050126608 0.050076794 0.050122947 0.050164845 0.050248351
0.050352462 0.050364662 0.050468139 0.050543834 0.05054006 0.0504568
0.050643254 0.050696373 0.050644197 0.050678652 0.050842665 0.050948039
0.050900541 0.050956331 0.051014092 0.05106955 0.051041283 0.050976053
0.050986055 0.05100533 0.050978452 0.050989464 0.051006678 0.050851874
0.050857533 0.050709475 0.050599806 0.050388623 0.05036578 0.050265055
0.050245546 0.050127663 0.050017796 0.049760032 0.049569149 0.049483951
0.049397636 0.049289197 0.049241457 0.049311798 0.049172804 0.049146198
0.049333457 0.049513318 0.049326506 0.049467232 0.04953289 0.049752325
0.049879991 0.0499654 0.050136127 0.050053727 0.050212976 0.050289042
0.050313894 0.050457042 0.050301295 0.050399505 0.050475828 0.050518822
0.050548282 0.050526813 0.050501592 0.050429765 0.050344028 0.050328676
0.050290335 0.050337888 0.050323267 0.05027023 0.050197288 0.05007096
0.050044734 0.049998689 0.049907733 0.049879149 0.049898032 0.049821537
0.049793817 0.04970007 0.049705479 0.049683318 0.049656346 0.049559731
0.04960075 0.049628109 0.049494378 0.049368326 0.049427036 0.049384307
0.04939964 0.049290892 0.049138129 0.04928375 0.049373046 0.049249809
0.049255278 0.049285911 0.049117606 0.049108654 0.049273547 0.049175154
0.049136072 0.049136072 0.049445208 0.049576309 0.049615894 0.049732186
0.049771916 0.04949373 0.049650695 0.049627759 0.049751978 0.049804024
0.04980569 0.049689662 0.049738966 0.04972079 0.049724493 0.049821284
0.049921934 0.050014347 0.050037108 0.050098103 0.050093912 0.050131734
0.050155945 0.050239004 0.050376624 0.050427575 0.050528593 0.050588354
0.050521508 0.050479859 0.050699167 0.050793771 0.050770268 0.050781164
0.050889261 0.051008698 0.050990026 0.051096264 0.051183585 0.051213238
0.051216181 0.051115897 0.051129237 0.051178005 0.051147472 0.051149465
0.051186986 0.051040098 0.051019955 0.050851356 0.050769735 0.050489817
0.050472476 0.050351042 0.050306376 0.050168231 0.049967572 0.049682442
0.04956232 0.04947773 0.049313158 0.049163349 0.049108014 0.049239896
0.049070168 0.049066667 0.049214263 0.049412817 0.049259067 0.049417026