# vtk DataFile Version 3.0
axinsert(project(???,0,L2),2)
ASCII
DATASET STRUCTURED_POINTS
DIMENSIONS 256 1 1
ORIGIN 0 0 0
SPACING 1 1 1
POINT_DATA 256
SCALARS nrrd85516 float
LOOKUP_TABLE default
0 0 0 0 0 0 0 0 0 0 0 0 0 0 0 0 0 0 0 0 0 0 0 0 0 0 0 0 0 2.4494898e-06
1.7944358e-05 0.0001338544 0.00094311027 0.0062844832 0.038872123
0.21511398 0.97594535 2.2958622 1.4336272 1.5348936 1.3520112 0.94065011
1.1563551 1.5626698 1.822787 1.7569232 1.5240618 1.8022102 1.7548437
1.646068 2.0405397 2.4765406 2.0953884 1.6249002 1.2944425 1.1032209
0.9989925 0.93804449 0.89807457 0.86912769 0.84621459 0.82683021 0.80955201
0.79408032 0.77967095 0.76628524 0.75379473 0.74205089 0.7309382 0.72037238
0.71029723 0.70071471 0.69162846 0.68281674 0.67451417 0.66657543
0.65897751 0.65165144 0.64447588 0.63738471 0.63078433 0.62479252
0.61937398 0.61463958 0.61021972 0.60565317 0.60059243 0.59501815
0.58906382 0.58347684 0.57878298 0.57529622 0.57327205 0.5726335 0.57286918
0.57321382 0.57318026 0.56974047 0.56529117 0.55873698 0.55093861 0.5423339
0.5340355 0.52507645 0.51459992 0.50523138 0.49992549 0.50151885 0.50832808
0.51864296 0.52359945 0.52211297 0.50556523 0.48194984 0.4576484 0.44438326
0.44032508 0.46980867 0.58628905 0.70617473 0.74965519 0.75591856 0.7399236
0.72290403 0.71393436 0.70476091 0.6647355 0.55745035 0.55745035 0.49284968
0.37696859 0.25851536 0.22907215 0.30607912 0.42532027 0.46140367
0.45827293 0.43146864 0.39225453 0.34172523 0.30593482 0.29128337 0.2858395
0.300192 0.33161077 0.36994505 0.39646217 0.400592 0.39151704 0.36923802
0.33471265 0.2957173 0.26207912 0.24215642 0.24378724 0.28204733 0.35881203
0.42763248 0.45284608 0.45475674 0.43894628 0.41277567 0.37959129
0.34945828 0.34044614 0.36425325 0.41360378 0.47240084 0.52985036
0.58459347 0.638695 0.69234496 0.74393481 0.7916382 0.83396274 0.86676669
0.89085209 0.90620941 0.90914571 0.89928609 0.87793201 0.84791517
0.81525445 0.78430843 0.75583732 0.72532034 0.6894303 0.64682311 0.60184383
0.55961096 0.51822233 0.47397682 0.42715287 0.37742436 0.3261281 0.27392334
0.21634014 0.14131674 0.062707357 0.012972252 0.0011958729 0.00010137061
7.6157735e-06 0 0 0 0 0 0 0 0 0 0 0 0 0 0 0 0 0 0 0 0 0 0 0 0 0 0 0 0 0 0 0
0 0 0 0 0 0 0 0 0 0 0 0 0 0 0 0 0 0 0 0 0 0
