# vtk DataFile Version 3.0
axinsert(project(permute(???,2,0,1),0,L2),2)
ASCII
DATASET STRUCTURED_POINTS
DIMENSIONS 128 256 1
ORIGIN 0 0 0
SPACING 1 1 1
POINT_DATA 32768
SCALARS nrrd51650 float
LOOKUP_TABLE default
0.050002001 0.050015017 0.049982317 0.049973231 0.050005049 0.050003197
0.049984053 0.049992099 0.049966034 0.050017916 0.049999014 0.049997233
0.050034013 0.050035104 0.049991008 0.049962316 0.050011065 0.050026
0.049974013 0.049965061 0.050019532 0.050021328 0.050013259 0.049980029
0.049988404 0.050014004 0.049955182 0.049970135 0.05004207 0.049991
0.049980249 0.050032023 0.050073117 0.050036244 0.049931999 0.049993061
0.04995 0.049972758 0.049996044 0.050049983 0.050061002 0.050015002
0.050040036 0.049976368 0.049924001 0.049936209 0.050024364 0.049993038
0.050007511 0.050085004 0.049991015 0.049991 0.050036039 0.050004024
0.049967002 0.050020002 0.050046071 0.049955081 0.049934067 0.049994037
0.050042018 0.050036024 0.050018005 0.049978178 0.049975019 0.049984016
0.049956042 0.049981486 0.049998004 0.050039396 0.050006021 0.049993347
0.050035063 0.050007999 0.050000001 0.050069019 0.049978565 0.04996125
0.05000405 0.049947012 0.049970325 0.050026167 0.050038058 0.049994059
0.049990229 0.050061006 0.050012175 0.049968038 0.049996 0.050016001
0.050027166 0.050031018 0.049985498 0.049982999 0.049999576 0.049931042
0.049996 0.050022002 0.049971126 0.049967092 0.050011005 0.049984008
0.050026286 0.050090078 0.05001029 0.04995703 0.049987026 0.050029092
0.050021205 0.049947999 0.04995003 0.049993031 0.05002109 0.049987003
0.05000703 0.049975 0.050032306 0.050046038 0.049972013 0.050010007
0.050032999 0.049966998 0.049966037 0.049989 0.05001023 0.050013013
0.050012033 0.050012033 0.05004001 0.050025105 0.049938012 0.049982186
0.04999001 0.0499935 0.049994003 0.049930256 0.049895 0.049987763
0.050063044 0.050025307 0.050007999 0.049951717 0.050033532 0.049976323
0.050073225 0.050096024 0.049946599 0.04989301 0.050093941 0.050021037
0.049963903 0.049950019 0.049952671 0.050017186 0.050002795 0.050053012
0.050105043 0.049927998 0.049972106 0.050101064 0.050045062 0.050046097
0.049904261 0.049915008 0.049901478 0.049944032 0.049998287 0.050090056
0.050118268 0.050032198 0.050117094 0.049956199 0.049853049 0.049896002
0.049994029 0.050022066 0.050003037 0.050095029 0.050021563 0.049995009
0.050042439 0.050015084 0.050021335 0.050035037 0.050005198 0.049946092
0.049952015 0.049998011 0.050060004 0.050015002 0.050014075 0.049967036
0.049903069 0.049959224 0.049940143 0.050019145 0.050049022 0.050060038
0.049995072 0.049954034 0.050004169 0.050035439 0.050044142 0.050076239
0.049927596 0.049925271 0.05007631 0.049883001 0.04993042 0.050088
0.050086107 0.049974002 0.049949098 0.050146189 0.050090998 0.049925003
0.049972001 0.050016008 0.050020009 0.05007612 0.049992006 0.050063021
0.050008081 0.049860001 0.049995072 0.050027002 0.049978007 0.049948119
0.05002502 0.049935255 0.050033011 0.050167236 0.049946114 0.049932078
0.050003093 0.05007812 0.049983125 0.049885999 0.049915023 0.050040025
0.050062001 0.049949035 0.049984001 0.04996803 0.050042022 0.050110001
0.049999017 0.049948033 0.049983118 0.049991027 0.04997002 0.049985003
0.050038029 0.050009001 0.050026 0.050026 0.050013006 0.049980197
0.04997107 0.050004054 0.049917191 0.050000612 0.050084166 0.049920112
0.049859092 0.049917236 0.050118208 0.050086081 0.049904097 0.049865369
0.050022207 0.050049726 0.050120093 0.050026529 0.050000969 0.04989209
0.050098147 0.050028075 0.049900021 0.049976137 0.049955625 0.049965207
0.050094899 0.050166097 0.050028414 0.04996457 0.050027069 0.05004422
0.049930509 0.049992576 0.049988765 0.049896199 0.049946591 0.049979068
0.049938425 0.050109278 0.050090179 0.050040223 0.050091136 0.049977362
0.049947072 0.049964037 0.049940016 0.050044052 0.050005 0.049923088
0.050050423 0.050012026 0.049952596 0.05001729 0.050141551 0.050070029
0.049893189 0.049998164 0.05005211 0.050014067 0.050068028 0.049974002
0.049958039 0.049994055 0.049878009 0.049935158 0.049960066 0.050034266
0.050063141 0.049971361 0.050003633 0.049979217 0.049944509 0.05003133
0.050060645 0.049973302 0.049961731 0.050012093 0.050098281 0.049953032
0.049986053 0.050085999 0.050082054 0.049928006 0.04992424 0.050134003
0.05012821 0.049996998 0.049941003 0.049990021 0.049975999 0.050034083
0.050059013 0.05012 0.050018005 0.049926002 0.04998203 0.049973998
0.050018001 0.049993008 0.050048042 0.049975093 0.050047219 0.050016262
0.049946062 0.049953502 0.049977075 0.050090138 0.049912006 0.049931999
0.049990013 0.050040163 0.050034009 0.050026052 0.049993146 0.049995169
0.04998821 0.050037041 0.050065018 0.049871136 0.049900003 0.050087024
0.049988069 0.049984999 0.050058067 0.049962025 0.050016001 0.050016001
0.049944013 0.049936071 0.050021097 0.04993901 0.049826451 0.049983256
0.050141651 0.049955223 0.049861386 0.049931191 0.050103165 0.050074533
0.049877547 0.049903452 0.049961299 0.050057925 0.050086305 0.049898487
0.050068405 0.049901668 0.050064217 0.050044801 0.04994138 0.050016291
0.049935032 0.049952731 0.050073929 0.050165001 0.049969018 0.050040632
0.050071597 0.049965974 0.049925111 0.049981117 0.050026353 0.049941801
0.049964733 0.050007612 0.049924381 0.050152253 0.050102253 0.050036248
0.050067183 0.050006304 0.050001062 0.049957078 0.049960122 0.050060004
0.049976058 0.049878053 0.050054088 0.049964081 0.049922377 0.050023086
0.050144374 0.050122283 0.049928196 0.049987033 0.05002724 0.050032176
0.050150156 0.049996018 0.04990707 0.05000611 0.04986307 0.049904171
0.049928196 0.049981337 0.050036382 0.049935352 0.050033432 0.04997525
0.049935997 0.049996335 0.050070196 0.050039262 0.050007239 0.050051097
0.0501072 0.049996048 0.049988113 0.050078161 0.050114099 0.049889021
0.049924068 0.050128002 0.050115094 0.050096031 0.049945053 0.049999017
0.049986187 0.050012026 0.050102115 0.050074097 0.049978003 0.049948014
0.049987003 0.049983043 0.050011087 0.050042041 0.050083268 0.050027117
0.050086439 0.049902204 0.050009031 0.04994652 0.049891017 0.050115127
0.049890019 0.04998311 0.05003424 0.049976245 0.049993046 0.050087124
0.050049122 0.050019417 0.049983289 0.04998441 0.050058074 0.049869236
0.049919154 0.050101265 0.049924072 0.049982049 0.050074078 0.049918033
0.049975019 0.049975019 0.049902059 0.049908001 0.050030127 0.04988404
0.049796317 0.04995006 0.050099697 0.049971398 0.049876675 0.049987312
0.050010324 0.04998849 0.049910333 0.049937833 0.049928941 0.050049163
0.050025236 0.049843088 0.050112493 0.049943708 0.050051 0.050022583
0.050008547 0.050025906 0.049866717 0.049975738 0.050045244 0.050150182
0.04995035 0.050038368 0.050126683 0.049953617 0.049912445 0.049968857
0.050036822 0.049992748 0.04997126 0.050061498 0.050019626 0.050153278
0.050097574 0.050054383 0.050075427 0.050030261 0.050026227 0.049933113
0.050015226 0.050081 0.049944133 0.049911011 0.050029013 0.049919136
0.049945045 0.050019011 0.050060131 0.05012447 0.050008271 0.049976099
0.049978234 0.050037291 0.05016927 0.050023288 0.049887113 0.049993325
0.049857296 0.049873281 0.049915433 0.049971361 0.050057389 0.049959254
0.050032262 0.049883284 0.049919073 0.049998235 0.050090779 0.050168145
0.050020095 0.050031144 0.050115164 0.049996134 0.04992611 0.050085336
0.05016708 0.049940124 0.049976025 0.050115004 0.05008002 0.050160047
0.050035153 0.050052151 0.050005604 0.04999933 0.050114386 0.050017271
0.049952224 0.049931347 0.050003178 0.050055459 0.050002746 0.050077427
0.050081961 0.050027423 0.050087728 0.049857311 0.050047603 0.049930375
0.049865473 0.050092343 0.049910221 0.050040625 0.05004042 0.049950562
0.049987458 0.050069585 0.050082255 0.050055612 0.049997419 0.049950693
0.050023191 0.049899325 0.049921356 0.050041191 0.049887046 0.04998913
0.050047055 0.049910001 0.049916103 0.049916103 0.049900077 0.049895007
0.049978163 0.049874123 0.049812179 0.049900062 0.050016642 0.049957506
0.049881827 0.050008595 0.049890976 0.049891036 0.049968082 0.049959205
0.049908709 0.050015625 0.04997554 0.049871262 0.050104909 0.049992882
0.050067414 0.049978644 0.050030284 0.049999733 0.049822114 0.050009012
0.050032228 0.050148264 0.049959145 0.049991094 0.050169058 0.049993768
0.0498931 0.049939811 0.050036673 0.050018735 0.049992245 0.050116185
0.050144449 0.05016071 0.050078273 0.050065961 0.050106209 0.050056566
0.050056811 0.049956247 0.050057419 0.050102111 0.049943328 0.049956046
0.04997009 0.0499423 0.049996998 0.049979039 0.049957063 0.050071511
0.050044369 0.0499974 0.049959224 0.050019413 0.05015038 0.050056633
0.0498932 0.049942493 0.049879577 0.049861252 0.049914598 0.049992304
0.050070453 0.049974389 0.050017305 0.049818456 0.049944524 0.050048117
0.050100233 0.050223097 0.050007176 0.050020147 0.050109111 0.050023157
0.049920999 0.050084025 0.050195009 0.050020047 0.050061271 0.050112084
0.050041419 0.050169002 0.050141443 0.050118379 0.050049029 0.04996286
0.050089538 0.050023634 0.050000988 0.049934417 0.050012235 0.050127532
0.049995981 0.050092611 0.050066996 0.049999468 0.050053418 0.049879052
0.05003804 0.049911726 0.049893778 0.050044045 0.049956076 0.050042655
0.050024845 0.049985267 0.05000224 0.050030336 0.050057899 0.050060824
0.050005693 0.049911819 0.049985435 0.049910367 0.049882371 0.049972139
0.049903076 0.049989223 0.04995805 0.049938031 0.049875159 0.049875159
0.04991404 0.049869001 0.049897186 0.049881253 0.049824238 0.049833238
0.04995184 0.049937729 0.049855106 0.049961176 0.049806263 0.049838178
0.050015807 0.049978733 0.049872536 0.049960494 0.049955811 0.049911678
0.050051223 0.050013095 0.05007321 0.049926605 0.04999841 0.049953889
0.049846645 0.050054744 0.050036367 0.050151691 0.049981292 0.049940389
0.050168343 0.050051153 0.049907953 0.04991322 0.050044183 0.050037868
0.050027598 0.05015495 0.05022385 0.050180081 0.050054681 0.050064467
0.050148696 0.050095689 0.050106976 0.050015863 0.050061043 0.050111849
0.049979057 0.049999416 0.049922578 0.050021525 0.050053056 0.049936242
0.049894121 0.05000747 0.050033428 0.050016671 0.049977351 0.049990498
0.05012247 0.050075788 0.049919445 0.049892519 0.049927786 0.049862191
0.049905714 0.050000269 0.050036728 0.05000063 0.050014358 0.049838562
0.05001507 0.050081085 0.050095063 0.050188083 0.050002333 0.050054055
0.050113056 0.050108023 0.050004147 0.05009824 0.050161321 0.050064038
0.05014253 0.050148394 0.050019078 0.050164372 0.050213166 0.0501609
0.050105613 0.049912602 0.050075147 0.050098769 0.050080545 0.049968895
0.050021295 0.050157115 0.050004408 0.050094664 0.050051235 0.049974352
0.050020821 0.049941909 0.049996145 0.04990213 0.04992795 0.049999569
0.04999987 0.050002124 0.049995136 0.050011173 0.050003134 0.050013907
0.050010953 0.050014317 0.050002035 0.049889132 0.049938988 0.049876485
0.049854506 0.049929321 0.049924243 0.04996733 0.049840096 0.049964007
0.049844116 0.049844116 0.049908027 0.04982809 0.049822185 0.04985952
0.049815539 0.049766634 0.049899232 0.049917325 0.049807787 0.049864113
0.049772911 0.049828518 0.050022956 0.049985025 0.049825292 0.049905181
0.049958583 0.049923129 0.049987778 0.049993657 0.050038919 0.049883589
0.049948964 0.04991829 0.049909815 0.050094385 0.050051969 0.050146218
0.050001483 0.049909085 0.050124776 0.050102971 0.049967244 0.049925771
0.050065279 0.050070904 0.050069325 0.05018454 0.050232712 0.050185926
0.050037995 0.050071921 0.050191674 0.05014002 0.050169673 0.050084509
0.050054386 0.05010828 0.050029419 0.050045419 0.049947567 0.05010169
0.050077688 0.04994164 0.04989839 0.049967412 0.050006568 0.050011631
0.049999591 0.04998561 0.050095465 0.050061844 0.04995266 0.049869549
0.049973883 0.04987127 0.049889736 0.049988333 0.049984921 0.050056662
0.050031334 0.049927432 0.050083008 0.05005911 0.050100017 0.050119054
0.050027274 0.050124001 0.050138004 0.050218068 0.050124276 0.050143957
0.050099712 0.050071549 0.050197776 0.050212983 0.050035607 0.050188538
0.050250191 0.050180063 0.05015051 0.049901903 0.050114106 0.050193183
0.05012406 0.050004859 0.050036956 0.05014414 0.050036196 0.050093327
0.050029941 0.049975794 0.050009258 0.05000655 0.049958598 0.049905967
0.049941454 0.049959105 0.050015066 0.049967058 0.049941413 0.049982276
0.049980342 0.050007623 0.049987916 0.049941503 0.049982585 0.049899843
0.049878836 0.049814861 0.049847946 0.049896672 0.049911562 0.049926378
0.049748223 0.049945023 0.049793046 0.049793046 0.049862038 0.049790356
0.049756195 0.049791019 0.049799003 0.049717225 0.04983766 0.049868271
0.049760982 0.049758367 0.049770501 0.049827412 0.049972795 0.049955495
0.049780656 0.049871042 0.049962472 0.049906172 0.049948536 0.049942344
0.049970243 0.049868353 0.049918208 0.049910389 0.049959332 0.050101109
0.050060712 0.050121617 0.050009497 0.049925812 0.050069574 0.050147627
0.05003823 0.049983073 0.050094821 0.050113447 0.050118707 0.050206553
0.050194249 0.050173976 0.050054912 0.050096452 0.050214943 0.050184064
0.050236598 0.050144985 0.05008227 0.050112639 0.0500798 0.050099466
0.050040487 0.050148915 0.050071836 0.049993988 0.049951967 0.049958438
0.049993917 0.050003458 0.049987778 0.050013755 0.050079469 0.050034925
0.049977615 0.049852718 0.049997881 0.04989256 0.049882621 0.049972463
0.049959764 0.050120506 0.050066289 0.050048221 0.05012105 0.050005089
0.050129998 0.050066009 0.050085045 0.050203137 0.050179068 0.05029643
0.050229333 0.05020541 0.050079875 0.050083712 0.050219234 0.050277889
0.050093047 0.050242312 0.050273117 0.050202042 0.050188791 0.04997129
0.050192699 0.050258528 0.050134063 0.050032899 0.050047129 0.050112888
0.050082017 0.050089415 0.05001178 0.050006948 0.050004743 0.050042495
0.049951229 0.04991195 0.049934849 0.049920514 0.050000176 0.049957644
0.04986494 0.049924094 0.049947206 0.049978238 0.049998909 0.04987755
0.049933586 0.049918856 0.049808662 0.049751528 0.049828548 0.049850859
0.049865831 0.049873348 0.049694303 0.049881078 0.049727011 0.049727011
0.049781058 0.049754661 0.049687278 0.049687594 0.049782425 0.049678985
0.049771246 0.049780287 0.049707513 0.049668916 0.049772922 0.049806047
0.04987023 0.049876876 0.049737122 0.049861722 0.049956445 0.049877714
0.049928181 0.049870942 0.049902208 0.049890634 0.049913596 0.049915981
0.049976829 0.050081879 0.050040025 0.050078094 0.050007939 0.050004389
0.050044142 0.050179299 0.050086305 0.050062962 0.050139088 0.050148215
0.05017041 0.050225224 0.05015495 0.050162207 0.05012621 0.050132502
0.050216544 0.050233502 0.05030356 0.050188199 0.050159395 0.050148558
0.050137818 0.05016508 0.050143063 0.050170537 0.0500727 0.050055195
0.050010681 0.049967658 0.050008461 0.050028443 0.049943872 0.050044801
0.05006763 0.050031081 0.04998751 0.04982508 0.050000794 0.049928024
0.049902447 0.049967598 0.049970463 0.050164357 0.050111242 0.050165087
0.05014503 0.049976017 0.050175037 0.050050016 0.050171047 0.050273474
0.050229453 0.050319999 0.050292548 0.050258577 0.050135147 0.050134141
0.050219283 0.050320242 0.050172929 0.050305355 0.050306249 0.05024774
0.050240718 0.050110985 0.050266135 0.050280239 0.050147161 0.050070994
0.050043102 0.050091796 0.050124492 0.050087318 0.050009407 0.050040308
0.049986932 0.050043937 0.04997826 0.049907669 0.049914427 0.049880352
0.049968436 0.049961951 0.049784277 0.049877051 0.049920756 0.049919099
0.050011445 0.049828745 0.049847092 0.049906828 0.049738299 0.04969126
0.049758956 0.049784809 0.049811944 0.04980531 0.04965125 0.049805071
0.049669001 0.049669001 0.049678098 0.049702842 0.049613528 0.049580976
0.049752805 0.049624842 0.049710315 0.049671438 0.049639225 0.049600761
0.049761176 0.049755573 0.049743019 0.049768537 0.049697179 0.049859323
0.049924031 0.04984419 0.049899701 0.0497986 0.049866971 0.049939595
0.049914446 0.049908448 0.049972095 0.050065089 0.049986131 0.050034232
0.05000677 0.050121024 0.050071452 0.05019502 0.050094157 0.050138872
0.050205018 0.050159793 0.050209299 0.050243519 0.050157692 0.050172132
0.05023833 0.050179839 0.050221827 0.050294004 0.050367948 0.050218705
0.050261587 0.050218526 0.050202906 0.050243761 0.050201681 0.050188959
0.050118335 0.050103653 0.050043359 0.049984254 0.050042015 0.050089806
0.049917039 0.050054792 0.050036963 0.050059345 0.049977608 0.049802598
0.049999669 0.049971491 0.04995035 0.04997573 0.050010268 0.050181288
0.050163209 0.050256032 0.050177 0.050006006 0.050217129 0.050072111
0.050270367 0.050339904 0.050285134 0.050315723 0.050316244 0.050303984
0.050247103 0.050222445 0.05023443 0.050343323 0.050259113 0.050359953
0.050362594 0.0503163 0.050317988 0.050280824 0.050313983 0.050268669
0.050170787 0.050132651 0.050045293 0.050098419 0.050160907 0.05009282
0.050020985 0.050044116 0.049948819 0.050026711 0.050025456 0.049890786
0.04987802 0.049836311 0.049938969 0.049957704 0.049716882 0.049852744
0.049896881 0.049843416 0.049982853 0.049778029 0.04973999 0.049850665
0.049667954 0.049617831 0.049644075 0.049710814 0.049763028 0.049721319
0.049601212 0.04973406 0.049632002 0.049632002 0.049560148 0.049620889
0.049537003 0.049490146 0.049697269 0.049529646 0.04964288 0.049567997
0.049558066 0.049556822 0.049723208 0.049669974 0.049623128 0.049663138
0.049666066 0.049832564 0.049851827 0.049792115 0.049848329 0.049746502
0.049871393 0.04998894 0.04989269 0.049875841 0.049965218 0.050063595
0.049918853 0.050015494 0.050019685 0.050230004 0.050145283 0.050200999
0.05007036 0.050193712 0.050287984 0.050149985 0.050227877 0.05026463
0.050223269 0.050220694 0.050359081 0.050242905 0.050265204 0.050366856
0.050430503 0.050259411 0.050355949 0.050310336 0.050269563 0.050331309
0.050209936 0.050210249 0.050206512 0.050153952 0.050061122 0.050010275
0.050073478 0.050160792 0.04994351 0.05005607 0.049984325 0.050095771
0.049954925 0.049815085 0.050009578 0.050006833 0.050014362 0.049994845
0.050068207 0.050184283 0.050225202 0.050316013 0.050227012 0.050084054
0.050258219 0.050124284 0.050374731 0.050414346 0.050351877 0.050330687
0.050333727 0.050358269 0.050367285 0.050336014 0.050295964 0.050370716
0.050346404 0.050406981 0.050438225 0.050391212 0.050411332 0.05044071
0.050349552 0.050243918 0.050191145 0.050218526 0.050081566 0.050131444
0.050190326 0.050102491 0.050032951 0.050014406 0.049903139 0.050009657
0.050060745 0.049862098 0.04982838 0.049800593 0.049916886 0.049918585
0.049660556 0.049838331 0.049865659 0.049763989 0.049900066 0.049706403
0.049645089 0.049759667 0.049590886 0.049517374 0.049516182 0.049648184
0.049708217 0.049629435 0.049551282 0.049655147 0.049595002 0.049595002
0.049441181 0.049504817 0.04945549 0.049415223 0.049616907 0.049401317
0.049546346 0.049474757 0.049479704 0.049541812 0.04965011 0.049539778
0.049525384 0.049584456 0.049643356 0.049766101 0.049739584 0.049710974
0.049774468 0.049727213 0.049885951 0.050009347 0.049839921 0.049827717
0.049961325 0.050069455 0.049866829 0.05003015 0.050053213 0.050293043
0.050231438 0.050206341 0.050036777 0.050222397 0.050366536 0.050146502
0.050236169 0.050280064 0.050339099 0.05031509 0.050466742 0.050331205
0.050357737 0.050445471 0.050494481 0.050338529 0.050429597 0.0504044
0.050330918 0.050419979 0.050205909 0.050229549 0.05029735 0.05022835
0.050104085 0.050054453 0.050088897 0.050208237 0.050009295 0.050082993
0.049940579 0.05012133 0.04994325 0.049867138 0.050026551 0.050022971
0.050088469 0.050020907 0.050134245 0.050183352 0.050293241 0.050365034
0.050294027 0.050186083 0.050313275 0.050191499 0.050476011 0.050499666
0.050444469 0.050400928 0.05038099 0.05043485 0.050465725 0.050457776
0.050407335 0.05042588 0.050435346 0.050456718 0.050517175 0.050462358
0.050504688 0.050565701 0.050397009 0.050235596 0.050203253 0.050325889
0.050154474 0.050174911 0.050208416 0.050099928 0.050030489 0.049972665
0.049872313 0.05000259 0.050052308 0.049815565 0.049776256 0.049787555
0.049888834 0.049830131 0.0496043 0.049821485 0.049812037 0.049680591
0.049777661 0.049611829 0.049588408 0.049648259 0.049500208 0.049387291
0.049409684 0.049595144 0.049627524 0.049541775 0.049512465 0.049545389
0.049533013 0.049533013 0.049346168 0.049366586 0.049357619 0.049332324
0.049518626 0.049270902 0.049422968 0.049382757 0.049400326 0.049539328
0.049547214 0.049369838 0.049447738 0.049524881 0.049609415 0.049670946
0.049611103 0.04960547 0.049684402 0.049720846 0.04986712 0.049988102
0.049770534 0.049786139 0.049953941 0.050055411 0.049849395 0.05006941
0.050105676 0.050308522 0.050289232 0.050209571 0.050018422 0.050230071
0.050416682 0.05017934 0.050254524 0.050281871 0.050466351 0.050436422
0.050559394 0.050448123 0.050479997 0.050524447 0.050561275 0.050465874
0.050499022 0.050494906 0.050394922 0.050506607 0.050236572 0.050249171
0.050344519 0.050323572 0.050200798 0.050117984 0.050087232 0.05022708
0.050063942 0.050144412 0.049943786 0.050142698 0.049978312 0.049927548
0.050032683 0.050018854 0.050164737 0.050049942 0.050186411 0.0501826
0.050356433 0.050418194 0.050380107 0.050300039 0.050395209 0.050274607
0.05056515 0.050590653 0.050575633 0.050537918 0.050480243 0.05053493
0.050551262 0.050573941 0.050545007 0.05051063 0.050513387 0.050524231
0.05058812 0.050525047 0.050602138 0.050657086 0.050469544 0.050269283
0.050218418 0.050441429 0.050234504 0.050206527 0.050207652 0.050069943
0.050010312 0.049943298 0.049862973 0.050001983 0.049992181 0.049746558
0.049724944 0.049793344 0.049829543 0.049701646 0.049546722 0.049797203
0.049727779 0.049588934 0.049646445 0.049509041 0.049567975 0.049527362
0.049398929 0.049247682 0.049327821 0.049526453 0.049521834 0.049458459
0.049468618 0.049402677 0.049437024 0.049437024 0.049299188 0.049227245
0.049221437 0.04921237 0.049405251 0.049169466 0.049309585 0.049295288
0.049303327 0.049500853 0.049429622 0.049199939 0.049382593 0.049459301
0.04954325 0.049571466 0.049492422 0.049494851 0.049582046 0.049691636
0.049779601 0.049927637 0.049714547 0.049765419 0.04993172 0.049993992
0.049860958 0.050118115 0.050172761 0.050302528 0.050297581 0.050195627
0.050023269 0.050234236 0.050428182 0.050260477 0.050298586 0.050267726
0.050557632 0.050549343 0.050648227 0.050583288 0.050601821 0.050606482
0.050623167 0.050615687 0.05058258 0.050592445 0.050476555 0.050596733
0.050332867 0.050285034 0.050330169 0.050410081 0.050341211 0.050181136
0.050080065 0.050234232 0.050061762 0.050209966 0.050005015 0.050179288
0.050075203 0.049955659 0.050004095 0.04999752 0.050224364 0.050080236
0.050203908 0.050175335 0.05040003 0.050468966 0.050501615 0.050430018
0.050503012 0.050383311 0.050642852 0.05067008 0.050743952 0.05073652
0.050631825 0.050649092 0.050662581 0.050674472 0.050670911 0.050600443
0.050565258 0.05062082 0.050652303 0.050589114 0.050722566 0.050730046
0.050560061 0.050350696 0.050253224 0.050543014 0.050286915 0.050219882
0.050183307 0.050009876 0.049976181 0.049925487 0.049856726 0.049996585
0.049898397 0.04965394 0.04967143 0.04978466 0.049726613 0.049567092
0.049499352 0.049765855 0.049620438 0.049493261 0.04952281 0.049429778
0.04956197 0.049400162 0.049292546 0.049114879 0.049252395 0.04941025
0.049417932 0.049368344 0.049388573 0.049251735 0.049322017 0.049322017
0.049295381 0.049115025 0.049036331 0.049054176 0.049272571 0.049112882
0.049249623 0.049226779 0.049172312 0.049380209 0.049315833 0.049090508
0.049325455 0.049364168 0.049442455 0.049489588 0.049395837 0.049402509
0.049470998 0.04960889 0.049627077 0.049843095 0.049690142 0.049761601
0.049889345 0.049888521 0.049887754 0.05017044 0.050247941 0.050304968
0.050268088 0.050159965 0.050052367 0.050257519 0.050409853 0.050372958
0.050375447 0.050247483 0.050578915 0.05062015 0.050736014 0.050709002
0.050705567 0.050704692 0.050674736 0.050744362 0.05068532 0.050715592
0.050591707 0.050697993 0.050493341 0.050345346 0.050274719 0.050457481
0.050482098 0.050210264 0.050080951 0.050247204 0.050003625 0.05021948
0.050101086 0.050233103 0.050213225 0.049926113 0.049921013 0.049959194
0.050221745 0.050108291 0.050181221 0.050161127 0.050413452 0.050492164
0.050656419 0.050577685 0.050621428 0.050529014 0.050723128 0.050736222
0.050923649 0.050975304 0.05081743 0.050771434 0.050827917 0.050761592
0.050754998 0.050669044 0.050588146 0.050746519 0.05072337 0.05067252
0.050881419 0.05080267 0.050651912 0.050464056 0.05030958 0.050603166
0.050293848 0.050219148 0.050140962 0.049933523 0.049935564 0.049908243
0.049827188 0.049970802 0.049800415 0.049547326 0.049612824 0.04972484
0.049595248 0.049464114 0.049473036 0.049715422 0.049514655 0.049402986
0.049408015 0.049404994 0.049541928 0.049277443 0.049178988 0.049000729
0.049163446 0.049232878 0.04935177 0.049263883 0.049254399 0.049124543
0.049208 0.049208 0.049289938 0.049047008 0.048821572 0.04889258
0.049112394 0.049094699 0.049249683 0.049187448 0.049018633 0.04917454
0.049223956 0.049082164 0.049276076 0.049236562 0.049325477 0.049429707
0.049310558 0.049341798 0.04936409 0.049474929 0.049454063 0.049754892
0.049691238 0.049745966 0.049832951 0.049778551 0.049926229 0.050223298
0.050322801 0.050331444 0.050235398 0.050117176 0.050105378 0.050309725
0.050392784 0.050493613 0.050491728 0.050253578 0.05053021 0.050643511
0.050822925 0.050793599 0.050786488 0.050832696 0.050718918 0.050829034
0.050802063 0.050867401 0.050750636 0.050811924 0.050679784 0.050420076
0.050216187 0.050466258 0.050574191 0.050195027 0.050086375 0.050268009
0.049912348 0.050142366 0.050183635 0.050267123 0.050322585 0.04983801
0.04978865 0.04989915 0.050110202 0.050125733 0.05013407 0.050152477
0.050402086 0.050476007 0.050810911 0.050717514 0.05073306 0.050702594
0.050835472 0.050810169 0.051082008 0.051213201 0.051013567 0.05090072
0.051044609 0.050855365 0.050795533 0.050711893 0.050610788 0.050893992
0.050811045 0.050785944 0.05106815 0.05088374 0.050735157 0.050583985
0.050390821 0.050612461 0.050261933 0.050210904 0.050083797 0.049872179
0.049892865 0.049880669 0.049768046 0.049917925 0.049711846 0.049452331
0.049565785 0.049604874 0.049465112 0.049410671 0.049465228 0.049627863
0.049435448 0.049331211 0.049302511 0.049437054 0.049485113 0.049172886
0.049046349 0.048910167 0.049065977 0.049025852 0.049333479 0.049148627
0.049087249 0.049042337 0.04910101 0.04910101 0.049230624 0.049015008
0.048631083 0.048777808 0.048922569 0.04908574 0.049266115 0.049158126
0.048886318 0.048941571 0.049161691 0.04915756 0.049224053 0.049096398
0.049213704 0.049373761 0.049227837 0.049312003 0.049277633 0.049333267
0.049329214 0.049681079 0.049694102 0.049691033 0.049770344 0.049713511
0.049977515 0.050272629 0.050392397 0.050377604 0.050224971 0.05009504
0.050192799 0.050376933 0.050410319 0.050608139 0.050647479 0.050333664
0.050443571 0.05064318 0.050910939 0.050820276 0.050843477 0.05098065
0.050777324 0.050887503 0.050924741 0.051035214 0.05094808 0.05092904
0.05083916 0.050496075 0.050188653 0.050458074 0.050586499 0.050162878
0.050086271 0.05026789 0.049827047 0.05000636 0.05018466 0.050227102
0.050309315 0.049707141 0.04963107 0.049826816 0.049890354 0.050114464
0.050079726 0.05016014 0.050390072 0.050439455 0.050908919 0.050804414
0.050825402 0.050872657 0.050999917 0.050926168 0.051203147 0.051400624
0.051196031 0.051046059 0.051274661 0.050985444 0.050829366 0.050758526
0.050680626 0.051039621 0.050910443 0.050932456 0.051235028 0.050972708
0.050815042 0.050681788 0.050504085 0.050588008 0.050217398 0.050195891
0.050013799 0.049862225 0.049853723 0.049841829 0.049705602 0.049847119
0.049635082 0.04939593 0.049551349 0.049450539 0.049362443 0.049401354
0.049463462 0.049495582 0.049388476 0.049280006 0.049218882 0.04949145
0.049378108 0.049085464 0.048899271 0.048855599 0.048983365 0.048842188
0.049334284 0.049033877 0.048931222 0.048996236 0.048996042 0.048996042
0.049087729 0.048993021 0.048520394 0.048742313 0.048714403 0.049042474
0.049224045 0.049100053 0.048818868 0.048767235 0.049125817 0.049241282
0.049149781 0.048970222 0.049109232 0.049301326 0.049163323 0.049300741
0.049226485 0.049237009 0.049300883 0.049630925 0.049682368 0.049593057
0.049706798 0.04971398 0.050029673 0.050312087 0.050448243 0.050424282
0.050235819 0.050108369 0.050313249 0.05043659 0.050478503 0.050723858
0.050826527 0.050513551 0.050382894 0.050655831 0.051007111 0.050804727
0.050874274 0.051110327 0.050874695 0.050974138 0.051042005 0.051193107
0.051161665 0.051036771 0.050936945 0.050563518 0.050206188 0.050450608
0.050534852 0.050147921 0.050078869 0.050193328 0.049781822 0.049843747
0.050069023 0.05005243 0.050107118 0.049543366 0.049488608 0.049760789
0.049625218 0.050053935 0.050017349 0.050182823 0.050401215 0.050429273
0.050917372 0.050814863 0.050898291 0.051005628 0.051200882 0.051101264
0.051302768 0.051505506 0.051348235 0.051211096 0.051466197 0.051164005
0.050896544 0.050862368 0.050830901 0.051158123 0.05100837 0.05109974
0.051332235 0.05105865 0.050903227 0.0507406 0.05064673 0.050569218
0.050192215 0.050174844 0.049937714 0.049908832 0.049825042 0.049803503
0.049684476 0.049775068 0.04956574 0.049392797 0.049566247 0.049310952
0.049293034 0.049414307 0.049460445 0.049347349 0.049358517 0.049240582
0.049181461 0.049518108 0.049216162 0.048997559 0.048771698 0.048850317
0.048929971 0.048725463 0.049305383 0.04893133 0.048815329 0.048955239
0.048887055 0.048887055 0.048883133 0.048952252 0.048498183 0.048776228
0.048512533 0.0489337 0.04908137 0.048968978 0.048828263 0.048719157
0.049101561 0.049251005 0.04904139 0.048878483 0.049004525 0.049206909
0.049146689 0.049291518 0.04921326 0.049225815 0.049362056 0.049596764
0.049657233 0.049488146 0.049643427 0.049749032 0.050053213 0.050330225
0.050478801 0.050456684 0.050255787 0.050142799 0.05044964 0.050474685
0.050585769 0.050863374 0.050993852 0.050770234 0.050413866 0.050706349
0.051112711 0.050792258 0.050889526 0.051187117 0.051024131 0.051132593
0.051144589 0.051322982 0.051367041 0.051130917 0.050977845 0.050633159
0.050260916 0.050449908 0.050458588 0.050175291 0.050039604 0.050030235
0.049763773 0.049693406 0.049847178 0.049730353 0.049726512 0.049356401
0.049378745 0.049709249 0.04941399 0.049931522 0.049935393 0.050195865
0.050433252 0.050466545 0.050854132 0.050779961 0.050964177 0.051083755