# vtk DataFile Version 3.0
axinsert(project(permute(???,2,0,1),0,L2),2)
ASCII
DATASET STRUCTURED_POINTS
DIMENSIONS 128 256 1
ORIGIN 0 0 0
SPACING 1 1 1
POINT_DATA 32768
SCALARS nrrd62181 float
LOOKUP_TABLE default
0.049994059 0.050004035 0.049999051 0.049986131 0.050024036 0.049989045
0.049979001 0.050008006 0.049976006 0.050004177 0.050049018 0.050002027
0.049988069 0.050009143 0.049985141 0.049979154 0.049991034 0.049961161
0.050030388 0.050018001 0.050025251 0.050037075 0.049959999 0.049962033
0.049951036 0.050004825 0.050039999 0.05005838 0.050032016 0.050007004
0.050013032 0.05001102 0.049954083 0.049943045 0.050002147 0.050014094
0.049987052 0.050000321 0.050046004 0.050028048 0.049984008 0.049970999
0.050000999 0.050020002 0.050007116 0.049996011 0.050005998 0.049958006
0.050007138 0.049993012 0.050026193 0.050000004 0.049987156 0.049996
0.049997102 0.050014049 0.050014023 0.049986064 0.049995061 0.050023202
0.050002072 0.049990043 0.049971063 0.049974158 0.049989074 0.050009105
0.049972065 0.049985174 0.05005718 0.049984012 0.049969621 0.050014161
0.0500261 0.050025295 0.049936004 0.05000063 0.049997177 0.05001653
0.050057013 0.050003011 0.049982194 0.049971014 0.050000455 0.050008029
0.049984176 0.050068002 0.050021049 0.049968012 0.050037019 0.050015032
0.050016999 0.049979374 0.049989112 0.050053388 0.049984135 0.049970027
0.049951002 0.049969099 0.049976036 0.049993176 0.050032064 0.050007112
0.050023001 0.050006013 0.050017003 0.049996059 0.050014 0.05003522
0.049973264 0.049973078 0.050049003 0.049956083 0.04995349 0.050050199
0.04998206 0.050003182 0.050045051 0.050018817 0.049922034 0.049970012
0.050019126 0.050003104 0.050006174 0.050028004 0.050042 0.04998016
0.049949016 0.049949016 0.050015174 0.049999088 0.049958095 0.05003126
0.050118461 0.049935058 0.049947072 0.050039034 0.049918108 0.049991105
0.050020065 0.050000902 0.050001021 0.049989428 0.049974021 0.049976263
0.049970001 0.049929239 0.050016031 0.050067514 0.050038002 0.050054569
0.049949151 0.049967274 0.049926013 0.049998209 0.050080016 0.049994104
0.050046641 0.049985252 0.05002901 0.050067302 0.049964752 0.049906064
0.049983226 0.049971085 0.04996058 0.050035458 0.050158225 0.050063107
0.049943145 0.049941234 0.050025206 0.050100029 0.049957011 0.049932379
0.05000218 0.0499673 0.049981017 0.04995963 0.050027292 0.050021481
0.049988426 0.049991231 0.049954295 0.050055746 0.04999923 0.049935766
0.049960703 0.050010856 0.049964264 0.050034225 0.050022628 0.05001647
0.050038196 0.050011221 0.049992096 0.049970027 0.05006313 0.049964219
0.049874198 0.05002575 0.050034292 0.050015666 0.04994981 0.049987126
0.050012685 0.050006136 0.050113734 0.049949273 0.049961325 0.050039068
0.050098345 0.050057001 0.049928021 0.050062113 0.049981285 0.049921498
0.050052036 0.050018486 0.050101269 0.050006144 0.04999901 0.050062064
0.049960107 0.049933065 0.049939159 0.049919017 0.049957238 0.050017007
0.050033029 0.050062023 0.050042 0.049990006 0.050016008 0.050047144
0.050076012 0.050069001 0.049976002 0.05003209 0.050060213 0.049851
0.049897052 0.050033007 0.050029002 0.049949069 0.050114151 0.049977068
0.04983326 0.049977098 0.050021138 0.050057139 0.049946025 0.050024003
0.050087102 0.049993027 0.049955025 0.049955025 0.050082039 0.049986999
0.049894031 0.050080147 0.050106067 0.049925379 0.049983062 0.050015084
0.049903002 0.049989145 0.049915001 0.049970485 0.050040036 0.049970414
0.050014041 0.050007261 0.04994702 0.049915262 0.0499781 0.050082307
0.050005112 0.049977548 0.050008301 0.050007276 0.049951229 0.049966466
0.05008547 0.049896423 0.049985755 0.049949661 0.05001311 0.050093669
0.050029114 0.050023489 0.049983338 0.049923316 0.049937379 0.050020512
0.050175805 0.050074562 0.049913697 0.049991541 0.050067287 0.050119366
0.049905345 0.049897555 0.049996316 0.050046571 0.049916103 0.049901165
0.050000314 0.049968436 0.050061945 0.050023906 0.049900517 0.050021619
0.049999904 0.04990647 0.049953096 0.049975496 0.049981128 0.050082974
0.050089888 0.050067574 0.050072733 0.050014693 0.050071634 0.050006326
0.049929474 0.049956158 0.049865484 0.050011024 0.050015669 0.049933217
0.050068397 0.049967412 0.049993053 0.050022624 0.050031513 0.049931068
0.050018497 0.050138392 0.050110772 0.05008376 0.049945626 0.049962394
0.049956884 0.050032347 0.050052129 0.049959112 0.050091382 0.050080344
0.050028164 0.049998142 0.049960356 0.049952157 0.049954262 0.049981296
0.050000999 0.050042026 0.049988002 0.050082095 0.050030999 0.049970053
0.049982 0.050087128 0.050094012 0.0500121 0.050057031 0.050067998
0.049960073 0.049863145 0.049951043 0.049981002 0.050069045 0.049941003
0.050064005 0.049966037 0.049902007 0.050014019 0.050055008 0.05002616
0.049874038 0.049999028 0.050037064 0.050035026 0.050032023 0.050032023
0.050102007 0.04998501 0.049856011 0.050071042 0.050016001 0.049936522
0.050035998 0.049966257 0.049895059 0.049993273 0.049900141 0.049934272
0.05002629 0.049976353 0.050005332 0.050024711 0.04997123 0.049891338
0.049990296 0.050056353 0.049984775 0.049963508 0.050040685 0.049989194
0.04990169 0.04994354 0.050081845 0.049940925 0.049965471 0.049945824
0.050003428 0.050058011 0.050004035 0.050085299 0.0500287 0.049949709
0.049916301 0.049960785 0.050139628 0.05008645 0.049937841 0.050032757
0.050067566 0.050071966 0.049914956 0.049928691 0.050007537 0.050048634
0.049874678 0.049882889 0.049996834 0.049901914 0.050069243 0.050064079
0.049865872 0.049979415 0.050023243 0.049899407 0.049962193 0.050000422
0.050018225 0.050073307 0.050112564 0.050047267 0.050025009 0.05003104
0.050071821 0.050014947 0.049895037 0.049970604 0.049895532 0.049975876
0.050014276 0.049903002 0.050099503 0.049942579 0.049962811 0.050080787
0.050007697 0.049955644 0.050070535 0.050152976 0.050022505 0.050078984
0.050022505 0.049975198 0.050003923 0.050107695 0.050123535 0.049939275
0.050014488 0.050102744 0.050068453 0.049991388 0.049960449 0.049977321
0.049895253 0.050077587 0.050071005 0.050024085 0.049986023 0.050068088
0.050071035 0.049973998 0.049955007 0.05008002 0.050094031 0.049974013
0.050080046 0.050027035 0.049916212 0.049881101 0.050017115 0.050022002
0.050044015 0.049988031 0.050014004 0.049986161 0.049956035 0.050035004
0.050108161 0.049955003 0.049891002 0.04999309 0.049969003 0.050036009
0.050060004 0.050060004 0.050046999 0.049998093 0.049856 0.050045066
0.049939021 0.049929325 0.050051033 0.049941376 0.049894098 0.049949415
0.049920443 0.049919259 0.050012533 0.049961302 0.04992969 0.050042007
0.050028555 0.049893554 0.049976606 0.049983919 0.049974468 0.049991034
0.050093189 0.050002567 0.049856987 0.049938645 0.050012186 0.049993623
0.049990769 0.04997322 0.049973462 0.049986705 0.049975183 0.050084721
0.05007714 0.050015382 0.049926609 0.049941093 0.050073702 0.050048828
0.050014183 0.050037824 0.050033189 0.050039288 0.049965143 0.049965777
0.050012834 0.050010756 0.049876157 0.049869716 0.050000273 0.049899731
0.050039075 0.050074868 0.049861126 0.049957044 0.050012376 0.049912333
0.049955159 0.049976632 0.049996875 0.050038207 0.050098538 0.050014924
0.049977612 0.050036658 0.04998365 0.0499934 0.04996315 0.050022475
0.049947295 0.049922407 0.050007474 0.049920511 0.05010695 0.049953107
0.049947344 0.050153226 0.050038476 0.049962256 0.050097212 0.050139837
0.049987558 0.050068881 0.050069168 0.050035506 0.050049011 0.050097983
0.050154239 0.049982924 0.049977683 0.050097954 0.050101828 0.0500018
0.049969643 0.05001463 0.049883347 0.050121464 0.05015327 0.050002083
0.049995247 0.050064053 0.050133191 0.049989004 0.049945053 0.050057001
0.050104115 0.049997002 0.050034016 0.049994033 0.049912099 0.049904007
0.050025012 0.050057042 0.050021004 0.050014094 0.049986999 0.050006118
0.050006043 0.050069015 0.050107129 0.049911093 0.04996103 0.049991012
0.049915053 0.050007001 0.050073005 0.050073005 0.04998 0.050007187
0.049867999 0.05001213 0.049919061 0.049921148 0.050025117 0.049922388
0.049885251 0.049883518 0.04994268 0.049918346 0.050009694 0.049950335
0.049857765 0.050051674 0.050052814 0.04988173 0.04992098 0.049924545
0.049963657 0.050008714 0.050121635 0.050028756 0.049880523 0.04991911
0.049926955 0.050014216 0.050017834 0.050011884 0.049940385 0.049932335
0.050004739 0.050091509 0.050074458 0.050043061 0.049963363 0.049939416
0.050043397 0.050003633 0.050082736 0.050023884 0.050003886 0.050068095
0.050003219 0.049970012 0.050015345 0.049993955 0.049885284 0.049866896
0.049991168 0.049934 0.050041847 0.050057806 0.049842086 0.049941007
0.049984347 0.0499295 0.049923185 0.049910102 0.049952298 0.050004885
0.050041936 0.049957372 0.049963586 0.050029527 0.049884941 0.049977213
0.050030269 0.050044954 0.049987376 0.049885418 0.05000316 0.049954247
0.05012643 0.050006557 0.049937874 0.050172433 0.0500951 0.049983036
0.05011639 0.050111737 0.050030805 0.050101701 0.050085638 0.050110571
0.05008819 0.050068025 0.050135393 0.050035331 0.050006904 0.050078757
0.050094046 0.050028019 0.049988654 0.050051771 0.049931426 0.050095256
0.050206754 0.050017085 0.050011478 0.050078019 0.050164413 0.050033003
0.049946059 0.050044004 0.050111115 0.050048001 0.050000008 0.049966007
0.049943056 0.049948011 0.049973007 0.050039046 0.050005008 0.050020084
0.050000012 0.050037023 0.050031029 0.050082013 0.050051015 0.049893249
0.050025005 0.050008029 0.049925037 0.049989004 0.050048031 0.050048031
0.049942032 0.049991198 0.049874999 0.049967196 0.049930096 0.049899157
0.049977243 0.049889479 0.049863525 0.049850736 0.049957741 0.049922545
0.050008722 0.049956579 0.049847759 0.050032429 0.050019197 0.049865872
0.049854286 0.049892642 0.049952731 0.049998704 0.050085932 0.05002486
0.049939346 0.04989301 0.049873743 0.050010599 0.0500319 0.050027333
0.049932886 0.049936317 0.05007726 0.050115269 0.050015945 0.050026409
0.05001035 0.049931783 0.050052401 0.049999673 0.050124984 0.050016109
0.050003007 0.050115954 0.049984518 0.049943455 0.050024934 0.050018329
0.049885463 0.049891278 0.049976014 0.049956407 0.050066963 0.050040219
0.0498292 0.049920171 0.049943499 0.049936894 0.049884494 0.0498445
0.049918395 0.049977034 0.049974024 0.049882635 0.049965654 0.050010871
0.04981447 0.049966548 0.050045755 0.050015856 0.049987942 0.049879346
0.050013054 0.049980789 0.050149526 0.050080996 0.049944811 0.050139416
0.050154835 0.05001894 0.050127774 0.050100774 0.050104506 0.050162174
0.050097257 0.050195981 0.050133508 0.050067212 0.050110284 0.050058398
0.05006808 0.050074659 0.050058927 0.050073929 0.050007422 0.050067708
0.049999412 0.050049189 0.050226711 0.050055139 0.050044417 0.050073009
0.050158575 0.050114017 0.049944062 0.05003101 0.05011512 0.050082013
0.050010044 0.049945001 0.049972072 0.050006006 0.049922008 0.049997006
0.049996018 0.050008014 0.050035048 0.050083999 0.050020009 0.05005201
0.049985036 0.049890228 0.05006801 0.050035086 0.049984999 0.050000016
0.050002024 0.050002024 0.049934041 0.049953189 0.049867004 0.049915269
0.049931146 0.049867388 0.049928345 0.049851712 0.049830668 0.049846113
0.049972787 0.049931865 0.04999271 0.049955193 0.049884006 0.049983732
0.049964815 0.049870215 0.049813736 0.049865518 0.04995827 0.04998238
0.050003391 0.049986023 0.049969252 0.049884997 0.049864233 0.049999807
0.050048254 0.05001048 0.049950812 0.049987026 0.050135627 0.05012254
0.049945779 0.049996458 0.050038304 0.049931288 0.050060079 0.050047308
0.050155975 0.050025713 0.050023753 0.050124262 0.049932983 0.049918931
0.05003221 0.050052945 0.049891785 0.049934719 0.049969267 0.049945731
0.050067551 0.050026134 0.049849864 0.049901556 0.049894039 0.049932461
0.049862262 0.049807809 0.049902678 0.049942039 0.049915567 0.049823467
0.049945589 0.049973674 0.049777079 0.049952503 0.050016589 0.049971767
0.049959965 0.049886707 0.050030723 0.049997173 0.0501693 0.050131448
0.049971391 0.050101306 0.050204113 0.050055038 0.050131992 0.05013093
0.05017969 0.050201099 0.050113149 0.050288823 0.050191183 0.050097696
0.050109465 0.050066583 0.050124228 0.050104909 0.050043732 0.050131787
0.050024252 0.050056566 0.05005737 0.050032187 0.050222374 0.050084215
0.050098255 0.050043009 0.050141465 0.050194018 0.049956121 0.050014999
0.050110169 0.050089005 0.050032128 0.049945999 0.049978074 0.050057001
0.049917001 0.049971007 0.049990006 0.049986009 0.050055049 0.050135016
0.049988002 0.049986001 0.049941171 0.049910072 0.050092023 0.050052043
0.050053008 0.05002502 0.049965002 0.049965002 0.049927004 0.049905229
0.049849052 0.04986833 0.049895257 0.049839858 0.049903437 0.049822964
0.049791694 0.049835481 0.049988925 0.04994531 0.049948875 0.049918193
0.049914658 0.049930938 0.049938552 0.04988103 0.049815681 0.049830679
0.049977388 0.049979497 0.049916405 0.049939886 0.049948201 0.049896754
0.049891889 0.05000798 0.050064392 0.049981885 0.049982946 0.050037123
0.050137173 0.050101608 0.049917899 0.049975604 0.050033156 0.04995193
0.05004843 0.050115265 0.050184183 0.050050724 0.050052755 0.050094076
0.049900386 0.049919195 0.050022174 0.050069477 0.049912058 0.049959034
0.049976982 0.049916904 0.050024457 0.05000408 0.049901009 0.049900118
0.049845807 0.049913041 0.049857385 0.049800284 0.049901381 0.049893256
0.049863607 0.049799714 0.049880996 0.049913187 0.049764175 0.049931511
0.049974997 0.049937904 0.049938131 0.049897391 0.05004083 0.050011467
0.050186396 0.050144926 0.050014276 0.050093211 0.05024099 0.050089121
0.050135788 0.050190859 0.050248891 0.050204005 0.050124999 0.050371706
0.050260235 0.050150305 0.050126966 0.050090924 0.050162364 0.050160401
0.050075706 0.050187722 0.050049275 0.050035439 0.050100341 0.050049175
0.05020918 0.050094228 0.050154135 0.050023019 0.050137155 0.050225008
0.049992178 0.050007053 0.050088208 0.050097004 0.050029121 0.049971003
0.049976029 0.050083 0.049952012 0.049977053 0.049991 0.04996907
0.050044999 0.050158028 0.049968001 0.049913019 0.049919173 0.049965005
0.050090998 0.050051004 0.050098006 0.050033018 0.04995602 0.04995602
0.049895015 0.049856286 0.049838182 0.04982435 0.049822494 0.049822252
0.049906667 0.049803142 0.049752865 0.049809653 0.049990185 0.049945895
0.049881432 0.0498522 0.049907614 0.04989773 0.049948219 0.049866453
0.049855094 0.049799457 0.049985681 0.049981453 0.04985993 0.049916208
0.04990124 0.049909443 0.049933992 0.050040502 0.050058 0.049969025
0.050024148 0.050053958 0.050085191 0.050068405 0.049948189 0.049975298
0.050008941 0.049992695 0.050026782 0.050169904 0.050202768 0.050080653
0.050085206 0.050060954 0.049917616 0.049941201 0.050001133 0.050067496
0.049939137 0.04994211 0.049989663 0.049890991 0.049955118 0.049971413
0.049949933 0.049919762 0.049807459 0.049878441 0.04984742 0.049805973
0.049910352 0.049841844 0.049806647 0.049795602 0.049785923 0.049837735
0.049760543 0.049905006 0.049943633 0.04991198 0.049939685 0.0499027
0.050029647 0.050023604 0.050198205 0.050144274 0.050069809 0.050117116
0.050271563 0.050128054 0.050147139 0.050255526 0.050313268 0.050194662
0.050137285 0.050424077 0.050327223 0.050221827 0.050153397 0.050141107
0.050187349 0.050212685 0.050147798 0.05023165 0.050085448 0.05003532
0.050135333 0.050084125 0.050200101 0.050106149 0.050198037 0.05004102
0.050152 0.050191 0.050042138 0.050016135 0.050047129 0.050125021
0.049999036 0.050005 0.049984999 0.050082017 0.049992003 0.050011106
0.050004039 0.049972188 0.050019093 0.050132066 0.049977001 0.049864139
0.04991103 0.050033133 0.050057031 0.050033007 0.050116003 0.050010011
0.04996502 0.04996502 0.049835078 0.049804267 0.049835362 0.049778339
0.049732801 0.049802259 0.049920134 0.049788274 0.049723327 0.049785696
0.049958576 0.049915668 0.04981751 0.049788848 0.049868561 0.049884081
0.049955934 0.049817275 0.049906548 0.049792059 0.049975585 0.049970347
0.049847439 0.049918272 0.049852356 0.049914561 0.049969327 0.050081823
0.050024312 0.049976964 0.050070133 0.050040647 0.05001564 0.050036475
0.050008658 0.049997777 0.049997821 0.050045688 0.050028328 0.050205003
0.050206561 0.050108112 0.050113972 0.050055452 0.049974758 0.049967136
0.049992245 0.050067086 0.049956102 0.049902942 0.049991693 0.049873095
0.049890023 0.049933061 0.049961973 0.049941368 0.049787823 0.049835674
0.049817931 0.049804684 0.049915254 0.049802821 0.04973929 0.049783856
0.049696147 0.04976061 0.049751811 0.049874291 0.049930107 0.049885798
0.049957134 0.049897265 0.050001815 0.050032422 0.050206203 0.05016822
0.050129544 0.050157961 0.050300915 0.050173841 0.050165154 0.050309014
0.050374612 0.050204176 0.050167829 0.050445832 0.050371379 0.05031113
0.050201312 0.050212868 0.05021004 0.050246377 0.050231762 0.050255474
0.050128549 0.050062168 0.050168253 0.050130039 0.050199028 0.050136033
0.050230008 0.050085001 0.050180137 0.050114017 0.05009301 0.050023176
0.050008003 0.050158057 0.049973004 0.050041031 0.050014071 0.050060134
0.050014019 0.050053202 0.050028142 0.050000347 0.049994349 0.05006922
0.050002031 0.049851339 0.049911037 0.050075315 0.050001096 0.05001305
0.050108042 0.049970005 0.049966998 0.049966998 0.049766131 0.049750164
0.049822491 0.049729344 0.049654 0.049764998 0.049909711 0.049774464
0.049702 0.049773835 0.049886193 0.049845658 0.049782023 0.049756221
0.04981745 0.049870715 0.049933091 0.049756974 0.049941696 0.049808379
0.0499552 0.049940847 0.049863696 0.049928252 0.049810808 0.049914427
0.049985748 0.050111126 0.049982212 0.049988318 0.050115176 0.050026104
0.049962401 0.050010409 0.050062288 0.05003595 0.050014004 0.05010407
0.050077233 0.050229128 0.05019851 0.050130427 0.050142955 0.050080691
0.050045099 0.049991239 0.050008509 0.050079778 0.049959164 0.049878769
0.04997227 0.049863253 0.04985635 0.049891494 0.049921278 0.049936827
0.049782913 0.049794897 0.049769949 0.049784251 0.049901914 0.04977905
0.049671672 0.04974607 0.049637526 0.049690824 0.049729958 0.049840104
0.049922388 0.049864698 0.049969077 0.049873438 0.049977459 0.050047871
0.050211448 0.050224572 0.05018276 0.050200686 0.050330102 0.050230499
0.050190862 0.050352156 0.050431501 0.050251495 0.050232854 0.050456252
0.050386455 0.050405011 0.050279714 0.050299305 0.050247554 0.050257701
0.050302494 0.050271209 0.050176311 0.050109014 0.05020107 0.05019201
0.050204024 0.050185028 0.050249211 0.050130066 0.05020145 0.050042115
0.050133146 0.050024241 0.049988165 0.050170176 0.049975161 0.050071258
0.050047312 0.050039437 0.050021231 0.050082445 0.050051361 0.050036564
0.049983613 0.049998526 0.050015155 0.049865484 0.049908265 0.050068397
0.049949136 0.049997136 0.050069079 0.049940001 0.049948029 0.049948029
0.049709149 0.04969408 0.049779538 0.049683433 0.049603045 0.049702812
0.049857169 0.049754798 0.049681701 0.049763277 0.04978323 0.049752783
0.049778696 0.049755756 0.049765546 0.049836326 0.049881972 0.049717348
0.04994186 0.049835995 0.049938302 0.049895626 0.0498803 0.049922366
0.049781207 0.049924195 0.049986705 0.050121237 0.04996077 0.049982782
0.050144374 0.050035298 0.049943633 0.049990345 0.050092265 0.050080512
0.050050717 0.050164912 0.05016572 0.050256003 0.05018786 0.050149288
0.050177313 0.050126228 0.050111949 0.050022736 0.05004501 0.050101992
0.049960576 0.049890842 0.049936045 0.049869478 0.049860742 0.049847141
0.049838528 0.049892962 0.049780849 0.04975922 0.049716815 0.049741641
0.049861308 0.049761314 0.049618229 0.049680009 0.049608979 0.049631912
0.049693134 0.049805731 0.049906645 0.049856968 0.049967699 0.049843106
0.04997877 0.050075147 0.050219469 0.050291557 0.050222062 0.050242133
0.050360192 0.050302785 0.050237257 0.050393511 0.050478783 0.050328292
0.050333813 0.050479546 0.050387062 0.050488349 0.050386935 0.050390672
0.050306156 0.050256152 0.050352152 0.050302006 0.05023101 0.050161097
0.05023504 0.050265312 0.050215397 0.050236456 0.050255809 0.050154496
0.050206959 0.050017513 0.050147995 0.050024509 0.049991034 0.050154589
0.050002761 0.050089948 0.050064854 0.050032973 0.050021835 0.050087944
0.050058804 0.050055895 0.049986862 0.049942933 0.049998451 0.049882576
0.049896531 0.05002442 0.049919169 0.049985267 0.049997095 0.049931999
0.049908094 0.049908094 0.049670134 0.049639072 0.049702536 0.049641654
0.049576093 0.049622901 0.049771469 0.049723335 0.049649388 0.049727179
0.049674891 0.049660895 0.049789358 0.049767897 0.049715269 0.049779676
0.049823601 0.049706742 0.049906723 0.0498497 0.049921837 0.049842902
0.049875155 0.049895834 0.049771965 0.049946871 0.049985956 0.050115965
0.04996549 0.049959723 0.050147627 0.050072476 0.049964871 0.049981978
0.05010581 0.05012336 0.050100088 0.050222177 0.050261959 0.050287202
0.050183035 0.050169218 0.050224327 0.050181679 0.050176531 0.050072864
0.050084926 0.05012393 0.049978472 0.049934354 0.049904365 0.049900666
0.049887635 0.049809162 0.049751166 0.049820721 0.049762789 0.049724489
0.049668763 0.04968489 0.049796507 0.049729325 0.049580023 0.049597703
0.049597438 0.049585368 0.04964732 0.049769491 0.0498701 0.049866632
0.049960438 0.049834885 0.050011899 0.050105542 0.050232824 0.050334565
0.050252758 0.050293181 0.050400123 0.05039838 0.05031953 0.05044705
0.050510723 0.050413333 0.050453965 0.050531771 0.050400961 0.050554298
0.050504319 0.050478186 0.050384 0.050258007 0.050394002 0.050364163
0.050299279 0.050212737 0.05027473 0.050331213 0.050238431 0.050276682
0.050253876 0.050161656 0.050202928 0.050047625 0.05013876 0.050026376
0.050010819 0.050122675 0.050043106 0.050087292 0.050054889 0.050034814
0.050021883 0.050073709 0.050047599 0.050043441 0.049992193 0.049913406
0.049954962 0.049878709 0.049878757 0.04996549 0.04990926 0.049967393
0.049901124 0.049936 0.049856111 0.049856111 0.049634118 0.049583163
0.049604528 0.049591057 0.049555324 0.049539376 0.049672805 0.049675144
0.049599282 0.049650591 0.049585149 0.049593981 0.049782105 0.049764942
0.049662028 0.049711224 0.04977994 0.049711905 0.049851947 0.049835764
0.049891457 0.049793288 0.049846798 0.04985638 0.0497871 0.04997348
0.049990017 0.050103597 0.049985137 0.049938142 0.050123807 0.050121948
0.050017606 0.049998008 0.05012222 0.050166853 0.05015726 0.050276108
0.050330065 0.050316062 0.050191298 0.050195303 0.050277106 0.050243352
0.050246846 0.050144836 0.050125431 0.050144557 0.050019812 0.049995307
0.049907234 0.049951803 0.049914092 0.049787439 0.04969427 0.049742255
0.049723793 0.049684435 0.049619824 0.049625035 0.049716551 0.049674932
0.049548857 0.049507365 0.049581673 0.049546424 0.049596447 0.049729649
0.049815625 0.049887426 0.049958516 0.049873278 0.05006773 0.050125241
0.050254304 0.050341781 0.050291426 0.050367691 0.050454758 0.050512306
0.050443899 0.050519466 0.050533768 0.050489835 0.050572351 0.050611012
0.050447352 0.050615359 0.050613027 0.050556 0.050470103 0.050285343
0.050452422 0.050455052 0.050374534 0.050265159 0.050313503 0.050376821
0.050277174 0.050299834 0.050249524 0.050169781 0.050199755 0.050107751
0.050120246 0.050031397 0.05003434 0.0500848 0.050075233 0.050067335
0.050016623 0.05003009 0.050016325 0.050051805 0.050028764 0.050000429
0.049983747 0.049905021 0.049894691 0.049844 0.049855046 0.049907647
0.049899459 0.049933467 0.049801171 0.049928006 0.049798075 0.049798075
0.04957911 0.049523421 0.049499575 0.049515639 0.049526807 0.049462244
0.049577381 0.049605284 0.049532663 0.049542494 0.049523737 0.049552355
0.049736295 0.049728129 0.049602132 0.049650144 0.04975209 0.049710643
0.049791925 0.049790937 0.049838301 0.049758069 0.049810104 0.049822506
0.049815286 0.049992252 0.049994878 0.050082833 0.050001968 0.049942873
0.050090879 0.050166652 0.050085835 0.050044965 0.050155763 0.05021248
0.050219472 0.050324209 0.050360221 0.050336406 0.050224684 0.050235119
0.050329436 0.050310962 0.050329581 0.050230499 0.050175525 0.050173413
0.050080325 0.050063454 0.049955279 0.050007947 0.049928997 0.049788769
0.0496797 0.049677826 0.049671892 0.049643062 0.049560886 0.049569029
0.049629547 0.049600236 0.049510427 0.049414285 0.049548578 0.049512241
0.049547371 0.049682304 0.049757019 0.049911939 0.049967911 0.049955156
0.050128356 0.050130174 0.050290231 0.050331112 0.050355457 0.050467793
0.050529961 0.050628915 0.050590422 0.050611362 0.05057212 0.050562412
0.050672852 0.050706394 0.050533082 0.050687999 0.050704055 0.05063032
0.050560519 0.050362367 0.05053588 0.050552957 0.050442688 0.050324474
0.05034728 0.050399229 0.050326757 0.050315846 0.050249089 0.050190948
0.050200712 0.050167851 0.050110281 0.050039899 0.050047256 0.050048966
0.050088879 0.050042033 0.049958058 0.050009001 0.050000202 0.050023381
0.050014224 0.049938012 0.049950685 0.049904846 0.04982657 0.049787514
0.049819443 0.04985385 0.04987473 0.049881477 0.04971423 0.04989304
0.049739029 0.049739029 0.04949313 0.049456816 0.049399715 0.049411312
0.049484484 0.049389392 0.049488336 0.049511772 0.049450617 0.049423806
0.049481187 0.049520444 0.049645167 0.049649436 0.049536474 0.049602255
0.049726211 0.049690366 0.049738657 0.049723014 0.0497678 0.049744196
0.049783487 0.049798146 0.04983855 0.049995553 0.049987216 0.050051432
0.050005566 0.04998621 0.050076939 0.050202098 0.050149173 0.05011595
0.050211821 0.050259732 0.050283268 0.050371211 0.050369866 0.050353676
0.050291907 0.05029612 0.050377116 0.050384704 0.050423414 0.050315313
0.050248973 0.050222993 0.050156601 0.050139416 0.050035052 0.05005629
0.049937975 0.04981197 0.049694244 0.049633659 0.049623076 0.049606666
0.049484853 0.049512848 0.049533658 0.049514521 0.04945077 0.049316674
0.04949221 0.049478743 0.049506269 0.04963145 0.049711131 0.049929243
0.049990557 0.050060831 0.050184269 0.050133139 0.05034053 0.050332375
0.050451666 0.050587792 0.050622836 0.050733611 0.050730973 0.050718788
0.050648622 0.050650496 0.050755356 0.050808039 0.050650999 0.050782379
0.050788444 0.050713371 0.05066048 0.050496433 0.050633717 0.050632901
0.050502561 0.050390773 0.050374959 0.050415747 0.05038457 0.050329808
0.05025807 0.05021923 0.050197858 0.050208814 0.050121918 0.050044656
0.050040547 0.050014921 0.050082985 0.050020341 0.049891025 0.049975712
0.049975678 0.049983662 0.050003037 0.049870007 0.049888078 0.049892861
0.049753465 0.049716212 0.049759872 0.049796022 0.049829993 0.049812455
0.049645271 0.049831081 0.049682003 0.049682003 0.049374174 0.049375191
0.049303021 0.049288925 0.049425229 0.04930862 0.049399726 0.049398594
0.049358051 0.049319498 0.049441274 0.049472507 0.049519945 0.049537554
0.049468365 0.049564902 0.049686275 0.049645841 0.049685907 0.049648441
0.049701098 0.049752384 0.049770646 0.049777035 0.049845353 0.049987912
0.0499609 0.050012447 0.050001156 0.050060548 0.050103467 0.050231341
0.050190665 0.050191827 0.050290078 0.050306953 0.050341334 0.05041768
0.050390776 0.050383572 0.050396018 0.050381452 0.050429255 0.050469037
0.050525393 0.05039886 0.05035039 0.050304256 0.050242573 0.050228149
0.050118491 0.050090011 0.049961738 0.049850166 0.049713671 0.049606796
0.049585208 0.049582604 0.049404819 0.049448673 0.049421921 0.049429037
0.049363211 0.049217559 0.049415767 0.049438737 0.049476478 0.049580082
0.049687296 0.049932737 0.050022561 0.05016182 0.050237477 0.050161105
0.050407097 0.050370567 0.05058055 0.050719973 0.050731663 0.050822552
0.050849251 0.050838396 0.050775029 0.050773069 0.050835013 0.0509101
0.050789259 0.050891485 0.050880443 0.050811414 0.05077745 0.050671913
0.050726894 0.050683904 0.050559249 0.050469276 0.05040786 0.050440945
0.05044017 0.050350223 0.050274968 0.050239824 0.050187197 0.050228883
0.050151594 0.050037205 0.050015524 0.049984507 0.050065953 0.049997211
0.04982543 0.049942292 0.049943957 0.049927618 0.049977321 0.049799934
0.049803954 0.049854014 0.049676359 0.049631979 0.049671244 0.049734198
0.049771197 0.049730454 0.049591303 0.049749129 0.049628001 0.049628001
0.049234226 0.049272381 0.049205489 0.049165387 0.049347956 0.049205761
0.049299464 0.049273685 0.049256645 0.049239382 0.049390074 0.049387507
0.049378425 0.049412008 0.049402896 0.04952354 0.049616914 0.04957635
0.049624156 0.049580857 0.049653541 0.049771722 0.049758997 0.049748231
0.049832277 0.04997772 0.049921453 0.049976613 0.049999502 0.050144851
0.050168108 0.050262969 0.050205994 0.050254479 0.050380409 0.050353665
0.050390236 0.050463721 0.050449576 0.050448433 0.050527357 0.050491858
0.050504342 0.050568253 0.050633915 0.050489329 0.050471701 0.050414607
0.05033654 0.050328925 0.050184879 0.050114084 0.050010242 0.049897585
0.049729876 0.049592141 0.049552172 0.049563989 0.049333911 0.049374804
0.04928828 0.049338877 0.04924994 0.049118578 0.049325462 0.049381856
0.049455341 0.04953308 0.049683109 0.049920026 0.050061263 0.050246723
0.050296798 0.050230268 0.050490003 0.050449748 0.0507317 0.050862547
0.05085972 0.05091371 0.050952211 0.050970893 0.050939359 0.050934028
0.050939243 0.051013887 0.050938398 0.051005516 0.050990637 0.050927699
0.050913028 0.050862916 0.050807245 0.050712332 0.050619338 0.050566453
0.050457723 0.050484493 0.050489068 0.050372548 0.050293826 0.050240975
0.050171029 0.050237667 0.050178848 0.050014287 0.04997972 0.049961783
0.050039396 0.04995846 0.049769435 0.049915504 0.049902014 0.049853902
0.049919214 0.049726464 0.049714275 0.049781334 0.049592372 0.049531806
0.049561594 0.049669553 0.049699392 0.049639568 0.049544353 0.049653206
0.049574006 0.049574006 0.049091265 0.049141325 0.049097989 0.049045682
0.049251709 0.049077801 0.049179215 0.04914574 0.04914787 0.049184158
0.049315751 0.049256969 0.049238086 0.049292002 0.049340412 0.049462818
0.049513467 0.04948061 0.049541395 0.0495237 0.049621589 0.049784269
0.049733862 0.049703911 0.049806908 0.049965601 0.049881067 0.049954887
0.050014466 0.050217077 0.050250947 0.050297569 0.050204836 0.050293349
0.050467625 0.050405897 0.050433423 0.050505497 0.050549727 0.050559632
0.050678115 0.050625954 0.050618514 0.050686054 0.0507502 0.050605204
0.05060488 0.050546385 0.050441597 0.050442941 0.050238337 0.050138991
0.050075423 0.04995719 0.0497518 0.049589325 0.049512818 0.049533464
0.049273998 0.049299378 0.049143564 0.049239781 0.049124874 0.049023908
0.049223565 0.049298786 0.049436342 0.049489655 0.049687225 0.049894828
0.050103277 0.050316311 0.05037418 0.050345276 0.050594617 0.050567284