# vtk DataFile Version 3.0
axinsert(project(???,0,L2),2)
ASCII
DATASET STRUCTURED_POINTS
DIMENSIONS 256 1 1
ORIGIN 0 0 0
SPACING 1 1 1
POINT_DATA 256
SCALARS nrrd17594 float
LOOKUP_TABLE default
0 0 0 0 0 0 0 0 0 0 0 0 0 0 0 0 0 0 0 0 0 0 0 0 0 0 0 0 0 2.6457512e-06
1.9261361e-05 0.00013567608 0.00095310283 0.0063413288 0.039128486
0.21592161 0.97718692 2.2965646 1.4392576 1.5399563 1.3577036 0.94421047
1.1611505 1.5659485 1.8226388 1.7563467 1.5226198 1.8024346 1.7570844
1.6503615 2.0472765 2.4809113 2.0968499 1.6234177 1.2939923 1.1041036
0.99984133 0.93835223 0.89769602 0.86793178 0.84471726 0.82522005
0.80807596 0.79267168 0.77856982 0.76555425 0.75345379 0.74212468
0.73143977 0.72129029 0.71159518 0.70230711 0.69348902 0.68480122
0.67634821 0.66819727 0.66059679 0.65315682 0.64605445 0.63940263 0.6330663
0.62660635 0.61955655 0.61199117 0.60468793 0.59764504 0.59266508
0.59019721 0.58912462 0.58860821 0.58820868 0.58546197 0.58090019
0.57595479 0.56879282 0.56130433 0.55453199 0.54893667 0.54490376
0.54232156 0.54212892 0.54282576 0.54330945 0.5419699 0.53899932 0.53505713
0.52938014 0.5223105 0.5152759 0.51007664 0.50431293 0.49854985 0.49314502
0.49003732 0.4844757 0.48154351 0.48083082 0.49325874 0.55137068 0.60174477
0.62005973 0.6212424 0.63086319 0.64167964 0.60563862 0.52910078 0.49349767
0.60226548 0.60226548 0.66082472 0.66646153 0.63964307 0.58430612
0.53891081 0.51291752 0.49293971 0.47068268 0.4442147 0.41581482 0.39969191
0.4096441 0.44627529 0.50268942 0.56558049 0.60688388 0.60778993 0.57113129
0.51476502 0.46542847 0.42973042 0.40615731 0.3936066 0.38882929 0.39260018
0.4026618 0.41352364 0.42027768 0.42004123 0.41491273 0.40603274 0.39368165
0.38441893 0.38220692 0.39217061 0.41552159 0.44514382 0.47351775
0.49726391 0.52464986 0.56465727 0.61498594 0.66822207 0.71835911
0.76219493 0.79702097 0.82239223 0.84099293 0.84933871 0.84610802
0.83252656 0.81072789 0.78459328 0.75731206 0.73059136 0.70446372
0.67746645 0.64861226 0.61783266 0.5838505 0.54638702 0.50623542 0.4631823
0.41578677 0.36216825 0.30230254 0.22780445 0.13571359 0.052435055
0.0087562883 0.00087096042 7.7704572e-05 6.8556546e-06 0 0 0 0 0 0 0 0 0 0
0 0 0 0 0 0 0 0 0 0 0 0 0 0 0 0 0 0 0 0 0 0 0 0 0 0 0 0 0 0 0 0 0 0 0 0 0 0
0 0 0 0 0 0
