# vtk DataFile Version 3.0
axinsert(project(permute(???,2,0,1),0,L2),2)
ASCII
DATASET STRUCTURED_POINTS
DIMENSIONS 128 256 1
ORIGIN 0 0 0
SPACING 1 1 1
POINT_DATA 32768
SCALARS nrrd65753 float
LOOKUP_TABLE default
0.050020009 0.049996007 0.049994007 0.050044082 0.049997129 0.049995054
0.050014999 0.049947016 0.049986206 0.05002109 0.050026003 0.050025005
0.049978044 0.049977012 0.049978007 0.050002161 0.050049003 0.049985133
0.049957 0.050032053 0.050068017 0.050033066 0.049945321 0.050000019
0.050010525 0.049941003 0.049990021 0.049981032 0.049973212 0.050026063
0.050086301 0.050053176 0.049942002 0.049920011 0.049951669 0.050016485
0.050030131 0.049975205 0.050020322 0.050057009 0.049959023 0.049955714
0.050042093 0.050035011 0.049999043 0.049965009 0.049999025 0.050010003
0.049992021 0.050057225 0.050031126 0.049948018 0.049981032 0.050012022
0.049984004 0.049956001 0.050058495 0.050062235 0.049985021 0.050023016
0.050002102 0.049931049 0.049949091 0.049965363 0.049986288 0.050046526
0.050058018 0.050039999 0.049992032 0.049950019 0.050006185 0.050055038
0.050016053 0.049927 0.049975347 0.050053004 0.05000107 0.049970049
0.049986076 0.050026171 0.050008003 0.049959179 0.050014213 0.050057001
0.050019007 0.049966004 0.049973011 0.049980104 0.049991008 0.050004181
0.050000019 0.049961004 0.049972706 0.050011069 0.050005287 0.050007008
0.050021235 0.050039008 0.049980011 0.050009046 0.050026022 0.049975011
0.05000734 0.050015002 0.049996044 0.049970999 0.049984254 0.050058
0.050022211 0.049961153 0.049983107 0.050001089 0.050019026 0.049997061
0.049943097 0.049992278 0.050042093 0.050046004 0.05002401 0.050011117
0.050023012 0.049957447 0.049960006 0.050024003 0.049981117 0.050014172
0.050001141 0.050001141 0.050074007 0.04998501 0.049998999 0.050015014
0.050040234 0.049972106 0.049931262 0.049907152 0.050008196 0.050027031
0.050076257 0.050098006 0.049953055 0.049941007 0.049994145 0.05004406
0.050093051 0.050027009 0.049882036 0.049978029 0.050114028 0.050047014
0.049956128 0.050026014 0.05004904 0.049862064 0.049931049 0.049974002
0.04991702 0.050008103 0.050059173 0.050018854 0.049996961 0.049861088
0.049913391 0.050049052 0.050087355 0.049977001 0.050028291 0.050108038
0.049894448 0.049970135 0.050084017 0.050037317 0.050057001 0.049973998
0.049986001 0.05000801 0.049933072 0.050063029 0.050074123 0.049929056
0.050004046 0.050075028 0.049986061 0.049897049 0.050062001 0.050083019
0.049929071 0.050039161 0.050038077 0.049908139 0.049856059 0.049955212
0.050018087 0.050062019 0.05008303 0.050105359 0.050034072 0.049935024
0.049942084 0.050017245 0.050015032 0.04987026 0.049993001 0.050024018
0.049933542 0.050045174 0.050010115 0.049974132 0.049994368 0.04997126
0.050067272 0.050087068 0.050018333 0.049993243 0.049910005 0.049966294
0.050066005 0.050016031 0.050022114 0.049914051 0.049965262 0.050023004
0.050065078 0.050014015 0.049962103 0.050058015 0.050033018 0.049948227
0.049911086 0.050012138 0.050061028 0.050027002 0.050012011 0.049982004
0.050042082 0.050172489 0.050060101 0.049875539 0.049918 0.050046246
0.049987011 0.049959999 0.049911007 0.049941059 0.050080005 0.050089002
0.050044004 0.050002005 0.05006909 0.050003018 0.049885307 0.050002065
0.049990077 0.049972001 0.05002103 0.05002103 0.050055061 0.050000008
0.050013077 0.049929999 0.050029319 0.049938027 0.049827673 0.049985223
0.050042316 0.050019149 0.05008325 0.050113097 0.049945269 0.049947266
0.050027359 0.050046161 0.050077524 0.050085172 0.049894337 0.049916118
0.050075367 0.050014146 0.050016355 0.050022148 0.050027467 0.049911372
0.049882386 0.049978506 0.049942493 0.049932219 0.049926959 0.049981587
0.050104551 0.049920328 0.049966283 0.050064102 0.050038289 0.050026346
0.050018139 0.050027441 0.049940377 0.050092172 0.050020035 0.050012536
0.050103012 0.050084319 0.049985111 0.049913228 0.049901102 0.049997207
0.050059423 0.049998272 0.050050173 0.050031163 0.050027646 0.04998102
0.049979154 0.050031058 0.049898114 0.050012112 0.05008024 0.050014067
0.04988201 0.049971007 0.050032999 0.049988057 0.050035074 0.0500861
0.050047114 0.049970254 0.049939089 0.049958095 0.049987018 0.049941175
0.050049003 0.049899057 0.04988711 0.050089058 0.050016262 0.049946122
0.04995418 0.050002221 0.050109193 0.05004609 0.04997715 0.050073266
0.049979001 0.049988002 0.050094046 0.05006903 0.050035331 0.049966
0.04998973 0.049991004 0.050076365 0.050017003 0.049983401 0.050017305
0.050083399 0.049893234 0.049815323 0.050056204 0.050068215 0.050016135
0.050015241 0.050018176 0.050162226 0.050157093 0.050039131 0.049882699
0.04990714 0.050023511 0.049876008 0.049929012 0.049979005 0.049956109
0.050036088 0.050069019 0.0500191 0.049971014 0.050075028 0.050120011
0.049896184 0.049936004 0.050029028 0.049908012 0.050025005 0.050025005
0.049993023 0.049981143 0.050034154 0.049930036 0.049969275 0.04992231
0.049805276 0.049982388 0.050037552 0.050043486 0.050099395 0.050101459
0.049895592 0.049926743 0.050050791 0.050002631 0.050062373 0.050061122
0.049922902 0.049956724 0.05010125 0.050035655 0.049961943 0.050014332
0.049976241 0.049909711 0.049896702 0.049951468 0.049996007 0.049910903
0.049936783 0.050052572 0.05007508 0.049967971 0.050000355 0.050053827
0.050004587 0.050039858 0.049991507 0.050000295 0.05000443 0.050116755
0.049978342 0.050055884 0.050088078 0.050131116 0.049990062 0.049842067
0.049946222 0.049955349 0.050041642 0.050024632 0.050041456 0.049964678
0.050054733 0.05004359 0.050003462 0.050082177 0.049916126 0.049962018
0.050077442 0.050030127 0.049943484 0.049976025 0.050005294 0.049953051
0.05002429 0.050075162 0.049994577 0.049958348 0.049996492 0.050036147
0.049986057 0.049953174 0.050048083 0.04990216 0.049917012 0.050004005
0.049985263 0.049996022 0.049958058 0.049974002 0.050117098 0.050076
0.049960002 0.050090004 0.050087001 0.050035145 0.050052237 0.050118051
0.050063469 0.050026175 0.04998599 0.049943186 0.050055612 0.050022174
0.050093833 0.050054934 0.050034139 0.04991331 0.049881443 0.050010011
0.050049618 0.050031979 0.050011937 0.050002005 0.05022965 0.050131455
0.049971264 0.04988673 0.049885407 0.049947523 0.049814086 0.049954217
0.050021235 0.049999453 0.050002504 0.050081179 0.04996153 0.049951009
0.05007932 0.050094005 0.049958032 0.049906086 0.050018016 0.049888011
0.050009008 0.050009008 0.049918018 0.049938243 0.050053153 0.04990619
0.049904373 0.049950685 0.049800247 0.049919568 0.050015904 0.050052963
0.050094977 0.050074529 0.049888458 0.049905241 0.050049625 0.049958885
0.049998421 0.050019015 0.049962346 0.049998228 0.050090846 0.050073702
0.049899485 0.04998688 0.049971543 0.04985654 0.049922578 0.049938984
0.050036445 0.049955748 0.049993329 0.050082535 0.05003611 0.050055828
0.04999369 0.050014228 0.050035033 0.050040789 0.049965974 0.05003095
0.050045069 0.050096735 0.05000725 0.050106101 0.050059669 0.05010245
0.049985006 0.049853548 0.05003757 0.049896598 0.049995121 0.050051082
0.050032895 0.049987089 0.050027486 0.050052281 0.050083455 0.050143465
0.049992234 0.049899023 0.050024416 0.049985234 0.049959969 0.050006229
0.050017655 0.049982131 0.049990296 0.050016254 0.049984757 0.049981181
0.05000845 0.050097287 0.049983315 0.049925227 0.050053444 0.049962178
0.049987044 0.049966004 0.049985059 0.050045054 0.050016999 0.04998542
0.050089054 0.050122265 0.049972255 0.05007039 0.050132174 0.050127447
0.050050899 0.050129618 0.050095048 0.050072953 0.049983561 0.049932979
0.050067864 0.050062139 0.050156582 0.050069571 0.049954392 0.049938902
0.049960718 0.04993185 0.050058428 0.05008303 0.050014198 0.049977239
0.050217971 0.050072536 0.049929969 0.049914077 0.049876377 0.04989896
0.049812037 0.049976118 0.050057068 0.050020184 0.049967263 0.050077852
0.049907789 0.049929425 0.050029531 0.049988069 0.050009999 0.049917169
0.049974028 0.049897999 0.049963091 0.049963091 0.049850024 0.049908306
0.050041161 0.049872566 0.049832266 0.049968362 0.04982337 0.04983981
0.049969327 0.050030693 0.050024964 0.050034359 0.049940944 0.049903456
0.049972866 0.049920797 0.049944848 0.049984705 0.049998887 0.050007802
0.050046023 0.05008439 0.04985787 0.049928494 0.050008725 0.049832534
0.049952824 0.04996242 0.050027836 0.050007034 0.050066646 0.050080232
0.050043892 0.050113887 0.04996933 0.050007213 0.050066754 0.050042622
0.049995583 0.050099608 0.050051559 0.05007688 0.050075598 0.050140817
0.050047215 0.050069727 0.049983583 0.049918588 0.050096266 0.049863108
0.049950365 0.050073456 0.050035238 0.050056383 0.050017487 0.050058063
0.050138336 0.050144739 0.050086506 0.049905144 0.049976204 0.049918324
0.049948696 0.050027344 0.050042585 0.05003421 0.049978271 0.049970213
0.050017349 0.050022032 0.04995916 0.050067276 0.05000649 0.049918059
0.050068378 0.05004701 0.050069008 0.050008222 0.050027043 0.050080605
0.050085161 0.050059244 0.050077915 0.050156292 0.050005354 0.050051663
0.050114412 0.050192356 0.050099157 0.050141092 0.050124515 0.050100386
0.049989104 0.049985703 0.050085738 0.050101627 0.050156299 0.050034247
0.049934089 0.049953621 0.050007395 0.049872469 0.050066311 0.050132412
0.050032094 0.049987007 0.050150555 0.049995326 0.049916729 0.049941923
0.049883157 0.049885958 0.049854077 0.049948759 0.050044253 0.050023846
0.049957164 0.050014898 0.04986788 0.049909364 0.049949616 0.049874403
0.05001004 0.049944207 0.049893089 0.049925011 0.049913187 0.049913187
0.049793012 0.049870368 0.049982224 0.049884222 0.049760114 0.049932174
0.049880538 0.049749274 0.049888652 0.049975865 0.049931206 0.049974889
0.049979735 0.049915865 0.049853582 0.049885411 0.049932528 0.049950384
0.050022904 0.049999993 0.049981676 0.05003098 0.049840812 0.049880352
0.050038245 0.049862761 0.049995609 0.05000693 0.049996428 0.050041717
0.050118592 0.05008271 0.050061453 0.05010343 0.049980026 0.050055236
0.050092872 0.05005214 0.050074149 0.050191894 0.050035551 0.050085403
0.050124969 0.050142471 0.050076351 0.050063506 0.050008073 0.050004859
0.05010527 0.049892843 0.04993546 0.050080653 0.050037447 0.050123524
0.050074648 0.050090641 0.050137315 0.050099779 0.05014563 0.049982466
0.049963105 0.049865451 0.049953312 0.050028324 0.050055299 0.05005724
0.049988236 0.049994197 0.050067045 0.050043013 0.049898025 0.050001115
0.050071198 0.049958039 0.050087016 0.05013714 0.05016312 0.050071944
0.05007951 0.050111637 0.050125774 0.050163157 0.050106388 0.05018393
0.0500319 0.050069291 0.050107986 0.050209612 0.050150145 0.050164379
0.050134774 0.050127357 0.050019775 0.050069559 0.050067089 0.050104614
0.050118499 0.049986996 0.049986038 0.049978659 0.050031755 0.049855277
0.050055586 0.050156761 0.050061718 0.05002461 0.050068647 0.04992158
0.049892489 0.049949568 0.049890459 0.049887739 0.049909253 0.04989142
0.049974773 0.050005458 0.049981035 0.049912911 0.049837306 0.049886417
0.04985993 0.049800847 0.049962424 0.049940225 0.049799182 0.049936999
0.04986316 0.04986316 0.049752999 0.049797352 0.049880333 0.049924757
0.049709186 0.0498496 0.049932942 0.049667168 0.049787953 0.049875211
0.049867623 0.049909923 0.049948327 0.049921986 0.049756724 0.049860928
0.049947303 0.049902551 0.050022386 0.049971413 0.049895283 0.049934674
0.049850676 0.049867146 0.050041914 0.049922302 0.050043423 0.050036334
0.049988046 0.05006142 0.050122559 0.050107013 0.050054569 0.050052725
0.050041985 0.05013068 0.050139062 0.050091472 0.050158996 0.050273638
0.050022051 0.050122723 0.05015159 0.050117824 0.050136413 0.0500971
0.050051108 0.050085846 0.050094321 0.049969893 0.049963858 0.050083898
0.050047696 0.050185423 0.050158862 0.050132591 0.050115511 0.050069757
0.050150555 0.050056897 0.049978185 0.049843676 0.049980234 0.050032377
0.050064132 0.050052278 0.049992125 0.050059289 0.050122 0.050037034
0.049880005 0.049979009 0.050172001 0.050027292 0.050116189 0.05020456
0.050255656 0.050125472 0.050129391 0.050134335 0.050152693 0.050267976
0.050162673 0.050205417 0.050048273 0.050138041 0.050154984 0.050204761
0.050171982 0.050186098 0.050133482 0.05016885 0.050081126 0.050134193
0.050019771 0.050081857 0.050099626 0.049962126 0.050045736 0.050017659
0.050041933 0.049875885 0.050038997 0.050153192 0.050082788 0.050056495
0.050011281 0.049872123 0.049839493 0.049946219 0.049902171 0.049874872
0.049915984 0.049834717 0.049886547 0.049956542 0.050008856 0.049821507
0.049825352 0.049851216 0.049756598 0.04976723 0.04988027 0.049868271
0.049733233 0.049918041 0.049799059 0.049799059 0.049720999 0.049696259
0.049753431 0.049929738 0.049675748 0.049754657 0.049931973 0.049615603
0.049705625 0.049739242 0.049818043 0.049858365 0.049860574 0.04989988
0.049708273 0.049850494 0.049957514 0.049835928 0.049987502 0.04991338
0.049807016 0.049849663 0.04987143 0.049876928 0.050034229 0.049978752
0.050078291 0.050036598 0.049998987 0.050072473 0.050100897 0.050143659
0.050035402 0.050015677 0.050113283 0.050202515 0.050201751 0.050171521
0.050227061 0.050315376 0.050035685 0.050183985 0.050183997 0.050100558
0.050197139 0.050162509 0.050105117 0.050156541 0.050093245 0.050051209
0.050031796 0.050107446 0.050093073 0.050244298 0.050211225 0.050155915
0.050111063 0.050085906 0.050121635 0.050081369 0.050005533 0.049847014
0.050022397 0.050064493 0.050083101 0.050057322 0.049982041 0.050109368
0.050177999 0.050018076 0.049928002 0.050022028 0.050270125 0.050097425
0.050155602 0.050253864 0.05031617 0.050182417 0.050189361 0.050147492
0.050196785 0.050356671 0.050231729 0.050229464 0.050084841 0.050249223
0.050233934 0.050208699 0.050183672 0.05019255 0.050131891 0.050220277
0.050157867 0.050163321 0.049990509 0.050069161 0.050124101 0.049964897
0.050062187 0.050057653 0.050041273 0.049921472 0.050026327 0.050113637
0.050075069 0.050064482 0.049989615 0.04984403 0.049778096 0.049946014
0.049928483 0.049830958 0.049840145 0.049800102 0.049822286 0.049882609
0.049985681 0.049766704 0.049826846 0.049792357 0.049653351 0.049749445
0.049785919 0.049735427 0.049697235 0.049866159 0.049720004 0.049720004
0.049684014 0.049593184 0.049629547 0.04985141 0.049626093 0.049665798
0.049862828 0.049596328 0.04967016 0.049608272 0.04973856 0.049820736
0.049767181 0.049835499 0.049693715 0.049842522 0.049940083 0.04976175
0.049927641 0.049833436 0.049745578 0.049811531 0.049884859 0.049881164
0.050016407 0.050006382 0.050091401 0.050025497 0.050001528 0.050078209
0.050089769 0.050177615 0.050033767 0.050031364 0.0501564 0.050250564
0.050258726 0.05027679 0.050291773 0.050313983 0.050094847 0.050271232
0.050231591 0.050121028 0.05025005 0.05023358 0.050175875 0.050231628
0.050112464 0.050103642 0.050116308 0.050164387 0.050180756 0.050291512
0.050219052 0.05015653 0.050123036 0.050139338 0.050085098 0.050074805
0.050036024 0.049869329 0.05008265 0.050126575 0.050111126 0.05008534
0.04998102 0.050114248 0.050232034 0.050017044 0.050023999 0.050108191
0.050326377 0.050155427 0.050208852 0.050300114 0.05034145 0.050265521
0.050260235 0.050171938 0.050269254 0.050427776 0.050303064 0.050279871
0.050167438 0.050372347 0.050302219 0.05023862 0.050228309 0.050198589
0.050134137 0.050265595 0.050228771 0.050173435 0.050011955 0.050088588
0.050171066 0.049988057 0.050040267 0.050081197 0.050037209 0.049976982
0.050010473 0.050037816 0.050030075 0.050052859 0.049983785 0.049817115
0.049739856 0.049938049 0.049941916 0.04976669 0.049711291 0.049791295
0.049796756 0.049794648 0.049874671 0.049744979 0.049814291 0.049702954
0.04956793 0.049716447 0.049709957 0.04958367 0.049653266 0.04978719
0.049650002 0.049650002 0.049625061 0.049497206 0.049518764 0.049698334
0.049538631 0.049580198 0.049747974 0.049585778 0.049655639 0.049513124
0.049627539 0.049773581 0.049693197 0.049733374 0.049680565 0.049827915
0.049885489 0.049695734 0.049862236 0.049748976 0.049716786 0.049811915
0.049889792 0.049868122 0.049970645 0.049992613 0.050088245 0.05001989
0.049989399 0.050082471 0.050100617 0.050194088 0.050065935 0.050103869
0.0501762 0.05027955 0.050299644 0.050382227 0.050365932 0.050296839
0.05019109 0.050377849 0.050288778 0.050187811 0.050312053 0.050294172
0.050266739 0.050317138 0.050154828 0.050141428 0.05020114 0.050244763
0.050284971 0.050318472 0.05021254 0.050158475 0.050141219 0.050204016
0.050068915 0.050086986 0.050074283 0.049905363 0.050153732 0.050200596
0.050144147 0.050120287 0.050015032 0.050085068 0.050279081 0.050065
0.050137028 0.050215468 0.050342824 0.050193589 0.050284233 0.050345637
0.050369844 0.05037554 0.050342184 0.050233684 0.050352387 0.050488155
0.050375275 0.050370689 0.050285276 0.050486669 0.050350439 0.050298035
0.050322808 0.050232489 0.050148927 0.050295521 0.050279051 0.050180547
0.0500766 0.050132379 0.05021761 0.050023641 0.050014719 0.050075516
0.05003871 0.050022855 0.049989015 0.049946431 0.049965672 0.050034139
0.049958874 0.049778242 0.049735084 0.049884077 0.049905274 0.049711317
0.049593374 0.049783621 0.049786966 0.049707688 0.049692001 0.049733914
0.049754336 0.049593624 0.049499445 0.049647409 0.049664725 0.049455885
0.049578417 0.049686156 0.049600005 0.049600005 0.049540106 0.049396373
0.049410108 0.049522787 0.049435351 0.049488664 0.0496163 0.049550533
0.049605273 0.049448855 0.049523864 0.049693808 0.049624562 0.049614444
0.049651843 0.049804874 0.049790539 0.049641047 0.049806159 0.049673166
0.049700331 0.049820397 0.049890097 0.049840692 0.04990131 0.049947537
0.050075471 0.050015677 0.049978182 0.050091978 0.05011585 0.050190583
0.050118711 0.050207853 0.050208271 0.050311569 0.050338045 0.050478604
0.050436858 0.050297998 0.050300196 0.050478682 0.050355218 0.0502882
0.050401211 0.050353762 0.050369177 0.050395139 0.050212592 0.050211821
0.05028772 0.050324231 0.050372541 0.050334264 0.050221119 0.050187685
0.050173055 0.050268628 0.050096598 0.05014658 0.050122242 0.049948007
0.050213695 0.050269604 0.05019217 0.050140161 0.050080087 0.050071001
0.050317023 0.05015704 0.050248224 0.050336752 0.050357606 0.050218102
0.050372981 0.050384581 0.050436649 0.050493568 0.05043637 0.050335836
0.050434966 0.050548926 0.050445415 0.05048598 0.050406307 0.050594319
0.050403386 0.0503713 0.050436217 0.050310582 0.050188579 0.050318491
0.050311133 0.050199434 0.050146967 0.050167989 0.050252426 0.050062448
0.049998548 0.050042968 0.050053321 0.050043546 0.049967967 0.049869061
0.049903374 0.050016671 0.049890622 0.049729381 0.049741752 0.049763538
0.049807638 0.049682114 0.04952354 0.049736369 0.049753893 0.049637441
0.049499605 0.049705815 0.049631827 0.049486838 0.049438115 0.049543653
0.049632728 0.049369987 0.049487825 0.049563177 0.049544007 0.049544007
0.049430091 0.049272731 0.049288426 0.049378581 0.049355872 0.04938798
0.049487028 0.049475718 0.049490593 0.049391042 0.049456347 0.049574636
0.049533244 0.049506743 0.049608808 0.049772389 0.049649432 0.049565047
0.049764093 0.049615245 0.04966848 0.049800124 0.049872771 0.049801689
0.049841173 0.049901158 0.05005528 0.049998485 0.049979903 0.050101053
0.050105404 0.050170768 0.050174113 0.050302748 0.050277069 0.05037199
0.050389349 0.05056417 0.050481394 0.05033467 0.050403759 0.050550666
0.050443187 0.050409924 0.050513159 0.050425369 0.050462261 0.050442372
0.05027261 0.050347671 0.050399963 0.050386623 0.050419223 0.05035663
0.05025636 0.050244283 0.050232891 0.050332464 0.050189558 0.050234675
0.050166175 0.049981512 0.050234769 0.050325584 0.050272271 0.050146036
0.050156184 0.050122045 0.050347045 0.050253078 0.050356526 0.050461784
0.050406203 0.050238665 0.050461568 0.05042037 0.050535455 0.050604951
0.050545208 0.05045997 0.050515566 0.050620779 0.050515067 0.050590459
0.050501183 0.050713629 0.050491709 0.050434459 0.050524812 0.050423112
0.050248235 0.050350349 0.050349735 0.050237518 0.050191328 0.050158519
0.050266884 0.050085127 0.0499864 0.050008405 0.050085828 0.050036956
0.049948081 0.049813159 0.049858112 0.050003737 0.049783062 0.049668409
0.049722154 0.049601413 0.049668979 0.049660821 0.049500391 0.049630884
0.049669486 0.049590524 0.049361929 0.049642343 0.049458832 0.049408779
0.049376819 0.049424417 0.049576078 0.049321026 0.049406447 0.049427282
0.049439128 0.049439128 0.049306031 0.049122103 0.049167372 0.049287893
0.049304713 0.049282167 0.049361575 0.049364917 0.049343091 0.049327314
0.049414646 0.049425207 0.049410496 0.049428955 0.049564272 0.049726352
0.049464233 0.049430769 0.049738705 0.049586389 0.049613573 0.049738802
0.049819894 0.049747501 0.049814023 0.049878951 0.050034381 0.049965102
0.049998716 0.050098464 0.050048895 0.050137851 0.050213341 0.050370872
0.050373096 0.050471712 0.050455213 0.050630499 0.050486878 0.050405394
0.050506536 0.050590623 0.050560895 0.050546147 0.05062611 0.05050157
0.05052349 0.05046799 0.050329667 0.050532997 0.050547879 0.050432719
0.050430693 0.05039756 0.050310411 0.050301984 0.050326407 0.050384246
0.050340675 0.050296035 0.050172247 0.049996175 0.050211046 0.050368518
0.050387565 0.050154001 0.050223358 0.050261099 0.050350226 0.050309028
0.050448462 0.050571386 0.050488513 0.05025626 0.050546836 0.05046669
0.050631106 0.050695442 0.050661303 0.050578687 0.050612237 0.050710216
0.050593738 0.050653532 0.050557952 0.050850946 0.050617859 0.050471075
0.050568573 0.050537482 0.050305404 0.050405014 0.050421659 0.050287504
0.050204523 0.050087724 0.050243508 0.050069809 0.049975377 0.050009213
0.050138205 0.050005324 0.049918793 0.04976891 0.049827542 0.049993306
0.049671024 0.049593933 0.049663883 0.049458273 0.049519062 0.049611922
0.049499035 0.049489744 0.049548749 0.049555548 0.049305387 0.049547214
0.04927361 0.049362268 0.049314041 0.049311671 0.049465477 0.049289141
0.049340803 0.049295418 0.049266338 0.049266338 0.049185004 0.048964158
0.049076896 0.049233217 0.049239699 0.04917343 0.049232148 0.049228635
0.049220979 0.049274344 0.049371131 0.049270518 0.04928007 0.049379963
0.049517315 0.049652573 0.049269054 0.049243163 0.049727004 0.049584523
0.049560513 0.049655672 0.049724251 0.049678743 0.049808439 0.049878947
0.050025519 0.049934838 0.05003202 0.05007983 0.049962383 0.0501003
0.050223816 0.050428078 0.050471116 0.050597426 0.050523072 0.050667543
0.050479531 0.050502151 0.05062674 0.050620586 0.050700948 0.050692044
0.050710689 0.050563019 0.050559573 0.050521187 0.05039658 0.050706282
0.050705198 0.050466467 0.050424699 0.0504595 0.050376758 0.050338611
0.050422568 0.050411083 0.05048655 0.050283164 0.050106347 0.049995035
0.050153349 0.050395384 0.050506119 0.05017801 0.050282706 0.050451048
0.050308064 0.050314035 0.050501026 0.050636001 0.05056211 0.050276101
0.050625257 0.05054456 0.050689254 0.050765038 0.050760329 0.050682478
0.050744981 0.050822422 0.050693512 0.05067455 0.050587323 0.050987955
0.050749172 0.050476633 0.050586861 0.050633579 0.050334625 0.05047353
0.050532144 0.050339632 0.050206989 0.049995448 0.050183263 0.050008725
0.049977414 0.05007045 0.05020586 0.049955156 0.0498784 0.049733862
0.04979711 0.049971301 0.049602918 0.049515732 0.049588054 0.049398422
0.049383491 0.049506757 0.04949845 0.049362008 0.049430933 0.049515028
0.049303979 0.049440984 0.049119323 0.049317602 0.04924937 0.04922178
0.049306415 0.049249381 0.049274463 0.049188487 0.04905336 0.04905336
0.049075034 0.048843857 0.049036462 0.049175203 0.049110305 0.049057808
0.049090654 0.049073886 0.049156744 0.049269687 0.049311694 0.049135607
0.049188595 0.049343891 0.049456488 0.0495377 0.049120523 0.049069181
0.0497167 0.049588028 0.049549241 0.049590338 0.049613513 0.049622223
0.049789656 0.049874548 0.050043996 0.049927749 0.050073683 0.050067395
0.049893629 0.050070494 0.050207894 0.050505418 0.05055495 0.050728358
0.050584808 0.050665151 0.050508622 0.050631195 0.050765168 0.050671227
0.050841257 0.050841954 0.050755143 0.050605912 0.050608344 0.050646391
0.050502282 0.050808102 0.050812021 0.050491013 0.050417002 0.050534017
0.050445136 0.050342288 0.050474048 0.050398443 0.050544005 0.050171476
0.049991142 0.049984001 0.050085291 0.050386216 0.05056883 0.050211214
0.050334375 0.050596062 0.050230421 0.050279688 0.050500736 0.05062712
0.050595243 0.050312083 0.050681662 0.050664589 0.050709009 0.050827321
0.050827052 0.050795007 0.050914951 0.050966207 0.050814942 0.050677635
0.050617516 0.051094003 0.050835073 0.05047166 0.050626632 0.050720237
0.050348502 0.05052989 0.050649516 0.050397877 0.050227638 0.049951382
0.050122645 0.049921669 0.050010551 0.050180007 0.050261941 0.049894899
0.049845748 0.049726196 0.04975763 0.049924877 0.049607113 0.049454737
0.04952541 0.049447067 0.049297735 0.049352739 0.049474292 0.049282189
0.049349304 0.049448069 0.049309094 0.049337395 0.049034767 0.049238894
0.049183201 0.049151912 0.049140811 0.049188685 0.049184732 0.049106494
0.04885811 0.04885811 0.048969354 0.048798468 0.049028352 0.049080648
0.048902635 0.048930183 0.048935369 0.048904847 0.049134597 0.049330845
0.049239781 0.049036477 0.049172804 0.049294461 0.049369436 0.049392618
0.049065493 0.048989326 0.049678478 0.049561501 0.049598236 0.049567878
0.049538262 0.049615439 0.049742844 0.049842484 0.050080959 0.04994591
0.050101213 0.050097179 0.049895227 0.050064832 0.050182402 0.050613388
0.050621159 0.050836708 0.050639682 0.05062633 0.050613314 0.050796445
0.050897621 0.050761942 0.0509574 0.050983574 0.050782125 0.050642245
0.050712004 0.050837144 0.050661344 0.050834227 0.050830483 0.050501004
0.050426539 0.050604373 0.050500341 0.05030112 0.050454166 0.050338019
0.050480384 0.04997341 0.049883556 0.049970046 0.050011832 0.050316062
0.050519574 0.050230041 0.050354581 0.050609376 0.050141033 0.050239224
0.050440859 0.050552744 0.050580584 0.050377902 0.050712213 0.050794207
0.050739605 0.050882638 0.050898578 0.050936416 0.051101118 0.05114514
0.050940502 0.05070721 0.05068513 0.051150203 0.050842542 0.050487071
0.050722405 0.050816286 0.05039382 0.050556805 0.050723251 0.050478343
0.05027651 0.050004821 0.050109696 0.049862865 0.050066262 0.050281789
0.050266817 0.049836274 0.049849041 0.049766425 0.049716264 0.049853314
0.049658973 0.049430288 0.04949126 0.049563251 0.049292084 0.04919089
0.049395744 0.049254932 0.049296476 0.049343813 0.049276769 0.049233034
0.049034659 0.04912705 0.049116269 0.049087055 0.049011134 0.049105782
0.049076229 0.049026478 0.048730019 0.048730019 0.048847377 0.048829235
0.049012668 0.048948631 0.048660766 0.048794165 0.048783921 0.048748259
0.049114123 0.049418915 0.049164772 0.048970904 0.049225636 0.049211722
0.049262803 0.049254704 0.049107678 0.049043264 0.049588639 0.049491953
0.049690641 0.049581654 0.049542926 0.04968328 0.049696088 0.049779173
0.050111853 0.049972005 0.050074507 0.050181612 0.049984705 0.050095733
0.050182998 0.050719839 0.0506813 0.050902177 0.050683178 0.050569013
0.050793521 0.05098097 0.050986577 0.05089533 0.051030092 0.051111039
0.05083216 0.050702091 0.050880879 0.051041208 0.050853129 0.050844375
0.050783079 0.050508995 0.050457485 0.050641254 0.05051351 0.050210569
0.050365757 0.050253585 0.050302297 0.049743291 0.049837042 0.049948204
0.049932297 0.050158005 0.0503354 0.050208531 0.050290652 0.050471649
0.050055373 0.05021093 0.050330911 0.050455607 0.050542526 0.05047651
0.050729789 0.050898373 0.050821353 0.050952923 0.051020179 0.051101893
0.051274896 0.05132132 0.051064231 0.050799437 0.050811082 0.051153131
0.050803047 0.050562065 0.050869945 0.050920539 0.050518524 0.050567534
0.05072682 0.050585296 0.050345544 0.050140671 0.050168905 0.049887925
0.050113659 0.050315615 0.050191253 0.049790375 0.049902909 0.049834698
0.049706694 0.049781635 0.049691692 0.049446665 0.049486335 0.04965762
0.049358521 0.049066167 0.049246933 0.049252976 0.049242519 0.049200952
0.049198914 0.049123839 0.049105205 0.049029924 0.049045958 0.049008999
0.048925798 0.04900844 0.048977066 0.048917431 0.048684314 0.048684314
0.048703689 0.048893128 0.048948683 0.048806094 0.048455548 0.048673488
0.048664249 0.048650868 0.049060814 0.049441688 0.049093511 0.048921257
0.049275856 0.049090814 0.049154673 0.049158975 0.049206931 0.049204931
0.049463481 0.049401324 0.049775898 0.049602926 0.04962172 0.049811166
0.049694084 0.049709756 0.050115317 0.049999885 0.049974054 0.050289284
0.050122708 0.050168797 0.050243199 0.05078366 0.050756354 0.050918855
0.050713375 0.050527144 0.051002722 0.051144592 0.051024914 0.051068302
0.05106806 0.051220071 0.050935097 0.05082044 0.051081397 0.051203899
0.051041912 0.050921742 0.050743822 0.050539836 0.050508723 0.050622124
0.050455622 0.050090581 0.050246101 0.050170053 0.05006114 0.04954553
0.049848247 0.049876444 0.049843036 0.049899001 0.050041262 0.050130241
0.050109711 0.050236419 0.049967922 0.050173499 0.050197568 0.050378669
0.05052359 0.050589785 0.05076623 0.050973106 0.05095318 0.051068503
0.051192004 0.051290378 0.051393777 0.051444858 0.051207006 0.050965469
0.051000021 0.051132008 0.050801039 0.050732248 0.051033378 0.051016182
0.050734855 0.05060092 0.050697219 0.050698511 0.05041264 0.050310001
0.050275475 0.050028916 0.050121974 0.050259613 0.050051045 0.049764413
0.049983058 0.049878947 0.049758233 0.049734794 0.049658164 0.049493227
0.04949468 0.049653228 0.049431376 0.049000476 0.049046502 0.049230535
0.049163256 0.049038216 0.049105078 0.049025409 0.04920318 0.048996285
0.04897121 0.048917394 0.0488519 0.048901908 0.048909072 0.0487663
0.048702545 0.048702545 0.048556093 0.048924088 0.048812315 0.048680972
0.048342437 0.048600249 0.048590578 0.048638068 0.048969649 0.049314436
0.049040176 0.048874769 0.049230345 0.048960786 0.049053259 0.049095888
0.049306035 0.04939656 0.049364775 0.049340867 0.049804606 0.049601819
0.049719553 0.049941238 0.049757153 0.049670532 0.050098807 0.050041221
0.049841791 0.050368574 0.050240893 0.050273199 0.050371371 0.050793242
0.050853644 0.050906669 0.050738119 0.050547492 0.051184051 0.05124677
0.05104867 0.051270086 0.051113464 0.051298324 0.051113084 0.050997522
0.051286772 0.051315196 0.05120125 0.051112849 0.050783534 0.050620571
0.050571829 0.050540309 0.050332464 0.049980685 0.050152685 0.050080251
0.049821809 0.049431786 0.049831495 0.049723636 0.04972 0.049565062
0.049691711 0.049983166 0.049835294 0.049986586 0.049859695 0.050097201