# vtk DataFile Version 3.0
pad(permute(???,2,0,1),[0,2]x[0,127]x[0,255],pad(0))
ASCII
DATASET STRUCTURED_POINTS
DIMENSIONS 128 256 1
ORIGIN 0 0 0
SPACING .007874016 .003921569 1.0
POINT_DATA 32768
VECTORS velocity float
0.00017499999 0.050034001 0 -0.000149 0.050042 0 7.0000001e-06 0.049970001
0 2.9999999e-05 0.049993999 0 4.0999999e-05 0.049984001 0 7.8999998e-05
0.050004002 0 -0.000102 0.049993001 0 6.2999999e-05 0.049991 0
-9.9999997e-06 0.050048999 0 -0.00015399999 0.050002001 0 0.000117
0.049968001 0 -3.6000001e-05 0.050043002 0 -3.5000001e-05 0.050023999 0
-6.0999999e-05 0.049991999 0 -2.6e-05 0.049991999 0 -5.5e-05 0.049952 0
7.5000004e-05 0.050002001 0 -7.2000003e-05 0.050016999 0 -3.2e-05
0.049986999 0 4.7000001e-05 0.049968999 0 7.6999997e-05 0.049986999 0
4.4e-05 0.049993999 0 0.000109 0.050005 0 7.0000001e-06 0.049991 0 0.000155
0.049986001 0 3.5000001e-05 0.050004002 0 0.000201 0.050005998 0
-1.8000001e-05 0.049991 0 0.00019999999 0.049959 0 0.000179 0.049986999 0
0.000141 0.050041001 0 0.00017299999 0.050032999 0 6.0999999e-05
0.050035998 0 -3.0000001e-06 0.050034001 0 8e-06 0.050000999 0 -1.3e-05
0.050000999 0 -5.4e-05 0.050023999 0 -8.3999999e-05 0.049968999 0
9.8999997e-05 0.049966 0 3.5000001e-05 0.050005 0 5.0999999e-05 0.049958002
0 0.000172 0.050000001 0 8.7e-05 0.050005 0 0.00013299999 0.049991999 0
8.8000001e-05 0.050018001 0 0.000134 0.050018001 0 6.0000002e-06
0.050028998 0 -1.3e-05 0.050007001 0 0.000128 0.049973998 0 3.4000001e-05
0.049968999 0 0.00023600001 0.050026 0 -6.2999999e-05 0.050009001 0 0.00022
0.04995 0 0.000172 0.050048001 0 -8e-06 0.050044 0 0.000104 0.049986001 0
-2.4000001e-05 0.049986999 0 5.9000002e-05 0.049968999 0 0.00019399999
0.050004002 0 8.2999999e-05 0.049975999 0 0.00027600001 0.049998 0 0.000107
0.050000999 0 0.000201 0.049956001 0 0.000203 0.04998 0 0.00023400001
0.050023999 0 0.000117 0.050027002 0 6.5e-05 0.049989 0 0.00023200001
0.049991999 0 2.3000001e-05 0.050009999 0 0.000291 0.049998 0 0.000122
0.050003 0 0.000218 0.049979001 0 0.00016900001 0.050037999 0 4.7000001e-05
0.049998 0 0.00026599999 0.04998 0 0.000104 0.050007999 0 0.000166
0.050027002 0 0.00014400001 0.050018001 0 0.00012899999 0.049996 0
0.00014600001 0.049996998 0 0.00012300001 0.050035998 0 -5.5e-05
0.049995001 0 9.2000002e-05 0.049943998 0 0.000106 0.049968001 0 0.000142
0.050030001 0 1.5e-05 0.050023001 0 4.4e-05 0.050009001 0 -2.6e-05 0.050005
0 0.000105 0.050030001 0 -5.0999999e-05 0.049993001 0 3.2e-05 0.049957 0
0.000157 0.050053 0 -0.00012700001 0.050023001 0 -4.6000001e-05 0.049942002
0 0.00012700001 0.050005 0 -8.2999999e-05 0.050035998 0 3.0000001e-06
0.050016001 0 -8.6e-05 0.049970999 0 1.5e-05 0.049973 0 -2.4999999e-05
0.049988002 0 9.7999997e-05 0.049966998 0 0.000108 0.049966998 0
9.4000003e-05 0.049981002 0 0.00021899999 0.050023001 0 4.4e-05 0.050053 0
4.2e-05 0.050009999 0 6.0999999e-05 0.050057001 0 -0.00013499999
0.050037999 0 3.7000002e-05 0.049988002 0 -0.00022099999 0.049954999 0
0.000222 0.049966 0 -0.000103 0.049988002 0 0.00013499999 0.049968001 0
9.6999996e-05 0.050028 0 2.4999999e-05 0.049991 0 8.8000001e-05 0.049947999
0 0.00013499999 0.050009001 0 9.5000003e-05 0.050048999 0 -8.9000001e-05
0.049979001 0 9.0000001e-05 0.050018001 0 -0.000166 0.050042 0
7.7999997e-05 0.050007999 0 -0.00015199999 0.049989 0 -4e-06 0.049959 0
9.4000003e-05 0.050039999 0 -0.00015399999 0.050014 0 6.2999999e-05
0.049970999 0 6.2999999e-05 0.049970999 0 3.3e-05 0.050035998 0
2.4999999e-05 0.050099999 0 2.2e-05 0.049862001 0 0.000155 0.049970999 0
4.9999999e-05 0.050020002 0 6.2999999e-05 0.050069999 0 -1.4e-05
0.050044999 0 -2.9000001e-05 0.049961999 0 5.4e-05 0.050039001 0 6.4e-05
0.049981002 0 0.000104 0.049927998 0 7.7999997e-05 0.050058 0 0.00016700001
0.049984999 0 0.000225 0.049996 0 0.000158 0.050032999 0 0.000157
0.049970001 0 1.8999999e-05 0.050023001 0 0.00013099999 0.050023001 0
6.0999999e-05 0.049938999 0 0.000191 0.049958002 0 1.7e-05 0.049942002 0
0.000205 0.049982 0 7.8999998e-05 0.050048001 0 0.000158 0.049968001 0
9.9999997e-05 0.049913999 0 0.000191 0.050000001 0 0.00014400001 0.050074 0
8.2999999e-05 0.049984999 0 0.00018 0.049908001 0 9.4000003e-05 0.050011002
0 0.00013499999 0.050037 0 0.00014600001 0.050027002 0 0.00018 0.050043002
0 0.000197 0.050037999 0 0.000225 0.050003 0 0.00026599999 0.050096001 0
6.1999999e-05 0.050064001 0 0.000239 0.049902 0 9.0000001e-05 0.049934998 0
0.000218 0.050007999 0 0.000139 0.049927998 0 0.000195 0.049947999 0
0.00017499999 0.050014 0 0.000155 0.050028 0 0.000162 0.050007999 0
0.000193 0.049986999 0 0.00025400001 0.050055999 0 0.000229 0.049964 0
0.000356 0.049961001 0 0.000191 0.049961001 0 0.000352 0.050058 0 0.000141
0.049966998 0 0.00046000001 0.049876001 0 0.000174 0.050135002 0
0.00031500001 0.050044 0 0.000351 0.050021999 0 0.00023400001 0.050021999 0
0.00028599999 0.049858999 0 0.00033899999 0.049963001 0 0.00032600001
0.049972001 0 0.000283 0.04998 0 0.000348 0.050026 0 0.00028800001
0.049989998 0 0.00021699999 0.050037 0 0.00019200001 0.050053999 0
0.00025400001 0.050055999 0 0.000195 0.049929 0 0.00038400001 0.049973998 0
0.000185 0.050011002 0 0.00036999999 0.049956001 0 0.00025000001
0.049982999 0 0.00041400001 0.049981002 0 0.00027700001 0.050057001 0
0.00041899999 0.049984999 0 0.000287 0.049943998 0 0.000398 0.050025001 0
0.00029600001 0.049991 0 0.00048799999 0.050009001 0 0.000325 0.050004002 0
0.00045200001 0.050066002 0 0.000185 0.050145999 0 0.00029200001
0.050007999 0 0.00019000001 0.049966998 0 0.000134 0.04995 0 0.000166
0.050021999 0 0.000153 0.050152 0 -1.2e-05 0.050004002 0 0.00016
0.049903002 0 0.000124 0.050016001 0 0.000235 0.050011002 0 0.00015399999
0.049901001 0 0.00021499999 0.050094001 0 0.00023600001 0.050080001 0
0.000104 0.049904 0 0.00019599999 0.050051998 0 7.9999998e-05 0.050064001 0
0.000181 0.049958002 0 0.000212 0.049982 0 0.000159 0.049996 0 0.00012
0.050009999 0 2.1e-05 0.049911 0 0.000103 0.049940001 0 1.4e-05 0.049959 0
0.000104 0.050023999 0 3.5000001e-05 0.050085999 0 0.000189 0.049995001 0
0.000118 0.050067998 0 0.000226 0.050073002 0 9.3000002e-05 0.049988002 0
0.00019200001 0.049927998 0 2.9000001e-05 0.049996 0 1.5e-05 0.050000999 0
2.1e-05 0.049887002 0 9.6000003e-05 0.050048999 0 4.9999999e-05 0.050009001
0 8.0999998e-05 0.049938999 0 8e-06 0.050007001 0 9.6999996e-05 0.050124999
0 -8.6e-05 0.050078999 0 -5.5e-05 0.050030999 0 -6.7000001e-05 0.050012 0
-6.0000002e-06 0.049991999 0 -6.8000001e-05 0.049991999 0 -6.7000001e-05
0.049917001 0 1.8999999e-05 0.050032999 0 6.0000002e-06 0.050035 0
2.4000001e-05 0.049942002 0 2.4000001e-05 0.049942002 0 -0.000114 0.049975
0 0.000108 0.050014 0 1.5e-05 0.049846001 0 0.000104 0.049961999 0 -1.2e-05
0.050057001 0 8.3999999e-05 0.050066002 0 6.9000002e-05 0.050074 0 0.000128
0.04995 0 9.6999996e-05 0.049964 0 0.000153 0.049943998 0 0.000189
0.049938001 0 0.000168 0.049998 0 0.000228 0.049899999 0 0.00028199999
0.049993999 0 0.00026299999 0.050048001 0 0.000329 0.050034001 0 0.000228
0.050055001 0 0.000287 0.049991 0 0.00025400001 0.049906999 0 0.00036000001
0.050012 0 0.00017699999 0.049970001 0 0.00029500001 0.049966998 0 0.000191
0.050043002 0 0.00038499999 0.049973 0 0.000155 0.04995 0 0.000256 0.049982
0 0.000184 0.050088 0 0.00027300001 0.049936 0 0.000298 0.049899999 0
0.000291 0.050041001 0 0.00030499999 0.049991 0 0.00030300001 0.050016001 0
0.00028000001 0.050042 0 0.000283 0.049982999 0 0.000313 0.049966 0
0.00037200001 0.050101001 0 0.00043499999 0.050037 0 0.000436 0.049933001 0
0.00032699999 0.049945001 0 0.00044 0.049996 0 0.000317 0.049996998 0
0.00036800001 0.049952 0 0.00026199999 0.050060999 0 0.000237 0.050012998 0
0.00037600001 0.049943998 0 0.000279 0.04998 0 0.000344 0.050032999 0
0.00031 0.049883001 0 0.00043399999 0.049979001 0 0.00029200001 0.049977001
0 0.00046800001 0.050032999 0 0.00032799999 0.049938001 0 0.00050099997
0.049936 0 0.00023000001 0.05015 0 0.00046499999 0.04992 0 0.00038700001
0.050050002 0 0.00047200001 0.050044999 0 0.00040300001 0.049858 0
0.00040799999 0.049954001 0 0.00039599999 0.050028998 0 0.000306
0.049961999 0 0.00045200001 0.050020002 0 0.00032399999 0.050062001 0
0.000486 0.050039999 0 0.00040700001 0.050032999 0 0.00050999998
0.050007999 0 0.00047999999 0.049906 0 0.00051699998 0.050011002 0
0.00041199999 0.049989998 0 0.00056499999 0.049926002 0 0.00043700001
0.049957 0 0.00058200001 0.050016001 0 0.000413 0.050041001 0 0.000604
0.049954999 0 0.000394 0.050002001 0 0.00047200001 0.050028 0 0.000379
0.049947999 0 0.00047200001 0.049989998 0 0.00036599999 0.050009001 0
0.00050000002 0.050106999 0 0.00034699999 0.050168999 0 0.00049599999
0.050028998 0 0.000275 0.050067998 0 0.00039500001 0.050005 0 0.000201
0.050011002 0 0.00036599999 0.050145999 0 0.00028000001 0.050030999 0
0.00030300001 0.049897 0 0.000164 0.049950998 0 0.00033899999 0.049991999 0
0.000218 0.049938001 0 0.00028499999 0.050035 0 0.00031100001 0.050094001 0
0.000252 0.049966 0 0.000264 0.050048001 0 0.00030000001 0.050032001 0
0.000336 0.049876999 0 0.000352 0.050021999 0 0.000283 0.050071001 0
0.00025700001 0.050065 0 0.000187 0.049968001 0 0.000136 0.049986999 0
7.9999998e-05 0.050000999 0 7.6999997e-05 0.050000999 0 0.000101 0.049989 0
0.000191 0.049963001 0 0.00012899999 0.050055001 0 0.000153 0.050048001 0
0.000111 0.050002001 0 0.000155 0.049998999 0 -1.6e-05 0.050080001 0
0.000102 0.049998999 0 4.9999999e-06 0.049904 0 1.6e-05 0.050019 0 -4e-06
0.050020002 0 3.3e-05 0.049988002 0 -6.0000002e-06 0.050000999 0
5.9999998e-05 0.050113 0 6.0000002e-06 0.050145 0 5.7000001e-05 0.050007999
0 1.2e-05 0.049977001 0 1.9999999e-05 0.050007999 0 -2.3000001e-05
0.050030001 0 -1.7e-05 0.049922001 0 -2.6e-05 0.049954999 0 3.1e-05
0.050021 0 2.8e-05 0.049979001 0 2.8e-05 0.049979001 0 -2e-06 0.049931999 0
0.000102 0.049961999 0 3.7999998e-05 0.049883001 0 5.7000001e-05 0.049982 0
1.1e-05 0.050058998 0 5.3e-05 0.049989998 0 0.00012700001 0.049998999 0
0.000197 0.049945001 0 0.00015399999 0.049984999 0 0.000162 0.049896002 0
0.000239 0.049918 0 0.00019000001 0.049991999 0 0.000212 0.049865 0
0.00022099999 0.049954999 0 0.000294 0.050004002 0 0.00034200001
0.050014999 0 0.00036199999 0.050074998 0 0.00036899999 0.049981002 0
0.00036599999 0.049885001 0 0.000367 0.050032999 0 0.000344 0.050002001 0
0.00033800001 0.049958002 0 0.00036000001 0.049959 0 0.000512 0.050009999 0
0.00031199999 0.050020002 0 0.000405 0.049977001 0 0.000332 0.050042 0
0.00049800001 0.049881998 0 0.000405 0.049892001 0 0.00046099999 0.050014 0
0.00045200001 0.050030001 0 0.000379 0.050039999 0 0.00044199999
0.050057001 0 0.000416 0.049986999 0 0.000379 0.049927998 0 0.00044999999
0.049986001 0 0.00058300002 0.050014999 0 0.00047599999 0.050018001 0
0.00043700001 0.049941 0 0.00045600001 0.050005 0 0.00042500001 0.049996 0
0.00051099999 0.050005 0 0.00035799999 0.050133999 0 0.000436 0.049934998 0
0.00047299999 0.049961999 0 0.00033099999 0.050011002 0 0.00043499999
0.049996998 0 0.00040700001 0.049892999 0 0.000363 0.049970999 0
0.00041199999 0.049952999 0 0.000413 0.050005998 0 0.00043300001
0.049927998 0 0.00048300001 0.049982 0 0.00040200001 0.050152998 0
0.00051300001 0.049892999 0 0.00037699999 0.049998 0 0.000581 0.050016999 0
0.00042600001 0.049924001 0 0.00048799999 0.049975 0 0.00043499999
0.050076999 0 0.00042200001 0.049934998 0 0.00048399999 0.050002001 0
0.00046000001 0.049972001 0 0.00070999999 0.049961999 0 0.00059100002
0.050037999 0 0.00070199999 0.049957 0 0.00063999998 0.049929 0
0.00065900001 0.050026 0 0.00063299999 0.049986999 0 0.00066299998
0.049934998 0 0.00060700002 0.049963001 0 0.00062800001 0.049993001 0
0.00065200002 0.050023001 0 0.00067199999 0.050012998 0 0.000486
0.050076999 0 0.00058699999 0.050014999 0 0.00053199998 0.049986001 0
0.00050800003 0.050012998 0 0.000482 0.049989 0 0.00052499998 0.050105002 0
0.00048700001 0.050147001 0 0.00056900003 0.050069001 0 0.00042 0.050074 0
0.00056000001 0.050020002 0 0.000398 0.050044999 0 0.00049800001
0.050092001 0 0.00043700001 0.050058998 0 0.00046899999 0.050005998 0
0.00029 0.049966 0 0.00038499999 0.049965002 0 0.000302 0.049957 0
0.00031100001 0.049996998 0 0.00036000001 0.050094001 0 0.00031900001
0.049977999 0 0.00034599999 0.050000999 0 0.00040799999 0.049998999 0
0.00039599999 0.049904998 0 0.00029 0.050032999 0 0.00034 0.050106999 0
0.00026 0.050106999 0 0.00026999999 0.050051998 0 0.000132 0.050034001 0
0.000162 0.050032001 0 0.000108 0.049986999 0 0.00018 0.049959999 0
6.8000001e-05 0.049947999 0 0.00019799999 0.050092001 0 5.3e-05 0.050085001
0 0.000108 0.049989 0 8.3999999e-05 0.050071001 0 2e-06 0.050074 0 0.000128
0.049977001 0 2.6e-05 0.049984001 0 -2.7e-05 0.050030999 0 -3.2e-05
0.049995001 0 3.1e-05 0.049940001 0 5.4e-05 0.049989998 0 6.5e-05
0.050103001 0 5.3e-05 0.050097998 0 0.000142 0.050032001 0 1e-06
0.050048999 0 1.5e-05 0.050043002 0 -7.0000001e-06 0.050009999 0
7.3000003e-05 0.049936 0 -6.8000001e-05 0.049950998 0 3.8999999e-05
0.049982999 0 1.5e-05 0.050009001 0 1.5e-05 0.050009001 0 7.6999997e-05
0.049896002 0 0.00011 0.049968001 0 7.5999997e-05 0.049908001 0
7.3000003e-05 0.049975999 0 0.000101 0.050064001 0 9.4000003e-05
0.049945999 0 0.00014400001 0.049924001 0 0.000212 0.049929999 0
0.00019399999 0.049995001 0 0.00021699999 0.049862999 0 0.000248
0.049908999 0 0.00021899999 0.050023999 0 0.00018800001 0.049874 0
0.00017499999 0.049904998 0 0.00026599999 0.049931001 0 0.00034299999
0.049957 0 0.00038400001 0.050034001 0 0.000451 0.049981002 0 0.000405
0.049911998 0 0.000367 0.050028 0 0.00041199999 0.050005 0 0.00037299999
0.049945999 0 0.000443 0.049867999 0 0.00052499998 0.050020002 0 0.000463
0.050051998 0 0.00050000002 0.049966998 0 0.00048700001 0.049991999 0
0.00057400001 0.049864002 0 0.00050099997 0.049924999 0 0.00050199998
0.049993999 0 0.00051699998 0.050080001 0 0.000439 0.050027002 0
0.00055699999 0.050016999 0 0.00053100003 0.050042 0 0.000462 0.049936 0
0.00048300001 0.049890999 0 0.00056900003 0.050012998 0 0.00050800003
0.050076999 0 0.000527 0.049965002 0 0.00044999999 0.050007001 0
0.00053899997 0.049945001 0 0.00053999998 0.050023001 0 0.00051899999
0.050136998 0 0.000589 0.049906 0 0.00052900001 0.050037999 0 0.00045399999
0.050032001 0 0.00051099999 0.04995 0 0.00052 0.049966998 0 0.000379
0.049956001 0 0.00053100003 0.049942002 0 0.00040799999 0.049996 0
0.00055499998 0.049879 0 0.000486 0.049966 0 0.00059000001 0.050119001 0
0.00055900001 0.049952999 0 0.00046700001 0.049970001 0 0.000588
0.049996998 0 0.00049200002 0.049943998 0 0.00062000001 0.049952999 0
0.00057199999 0.050092001 0 0.00062499999 0.049915001 0 0.00063600001
0.049972001 0 0.000695 0.049844 0 0.000826 0.049899999 0 0.00077500002
0.050058998 0 0.00082000002 0.049945001 0 0.00075800001 0.049959999 0
0.00078599999 0.050007999 0 0.00077899999 0.049993999 0 0.00076800003
0.049950998 0 0.000734 0.049996 0 0.000711 0.049963001 0 0.00076600001
0.050002001 0 0.00073199999 0.050117001 0 0.00061699998 0.050089002 0
0.000764 0.04998 0 0.00064500002 0.050032001 0 0.00068 0.050042 0
0.00060700002 0.049991 0 0.00064300001 0.050101001 0 0.00061599998 0.050122
0 0.00065900001 0.050097998 0 0.00058499997 0.050074998 0 0.00062900002
0.050021 0 0.00055900001 0.050074998 0 0.00058300002 0.050099 0 0.000527
0.05006 0 0.00059100002 0.050053 0 0.00048799999 0.050034001 0 0.000451
0.049979001 0 0.00042900001 0.050009999 0 0.00030399999 0.049982999 0
0.00040600001 0.050074998 0 0.000348 0.049986001 0 0.000374 0.049961999 0
0.00036899999 0.049984001 0 0.00036599999 0.049995001 0 0.000222 0.050067 0
0.00030099999 0.050106999 0 0.00024199999 0.050129998 0 0.00025799999
0.050101999 0 0.000181 0.050085999 0 0.000186 0.050026 0 0.00021300001
0.049982 0 0.000168 0.050032001 0 1.8999999e-05 0.049945001 0 0.000142
0.050080001 0 5.4e-05 0.050136 0 9.9999997e-05 0.049966998 0 7.2000003e-05
0.050099 0 7.2000003e-05 0.050035998 0 0.000128 0.049966998 0 7.3000003e-05
0.050069999 0 1.1e-05 0.050071999 0 -3.0000001e-06 0.049966998 0 4.2e-05
0.049896002 0 4.4e-05 0.049970999 0 6.4e-05 0.050108999 0 2.1e-05
0.050069001 0 0.000114 0.050066002 0 -1.1e-05 0.050103001 0 5.3e-05
0.050023999 0 6.1999999e-05 0.049956001 0 0.000134 0.050000001 0
-6.6000001e-05 0.049984001 0 4.5000001e-05 0.049942002 0 -1.8000001e-05
0.050026 0 -1.8000001e-05 0.050026 0 5.0999999e-05 0.049864002 0 0.000112
0.049957 0 0.000112 0.049927998 0 7.5999997e-05 0.049947999 0 0.000168
0.050041001 0 0.000166 0.049947001 0 0.000151 0.049876001 0 0.00024199999
0.049901001 0 0.00022 0.049973998 0 0.000272 0.049844999 0 0.00026100001
0.049913999 0 0.00028899999 0.050053 0 0.000249 0.049908999 0 0.000231
0.049874 0 0.00028599999 0.049837999 0 0.000398 0.049896002 0 0.00036999999
0.049968001 0 0.00050099997 0.049959 0 0.00042500001 0.049970001 0
0.00038899999 0.050025001 0 0.000428 0.049998 0 0.000417 0.049927 0
0.00046400001 0.049805999 0 0.00049800001 0.049989998 0 0.00053299998
0.050043002 0 0.00054400001 0.049950998 0 0.00058300002 0.049966998 0
0.00058300002 0.049865998 0 0.00058499997 0.049963001 0 0.00051599997
0.049996998 0 0.00057799998 0.050092999 0 0.00053000002 0.049998999 0
0.00062200002 0.049968999 0 0.00060299999 0.050080001 0 0.00060000003
0.04998 0 0.00050899998 0.049878001 0 0.00055200001 0.049989 0
0.00057700003 0.050065 0 0.00060899998 0.049998999 0 0.00052399997
0.049993001 0 0.00064400001 0.049910001 0 0.00056399999 0.050021 0
0.00064699998 0.050088 0 0.000657 0.049929999 0 0.00059299998 0.05009 0
0.00059399998 0.050039001 0 0.000604 0.049922999 0 0.00063000002
0.050032001 0 0.00051899999 0.049952 0 0.000627 0.049929999 0 0.00055
0.049975999 0 0.00067799998 0.049851 0 0.000558 0.049945999 0 0.00068599998
0.050076999 0 0.00061400002 0.050019 0 0.000619 0.049966 0 0.00062499999
0.049993999 0 0.00062200002 0.049888 0 0.00075800001 0.049897 0
0.00073799997 0.050069001 0 0.00083099998 0.049876001 0 0.00085000001
0.049927998 0 0.00090799999 0.049793001 0 0.00086799997 0.049871001 0
0.00093699998 0.050058998 0 0.00092299999 0.049963001 0 0.000902
0.049972001 0 0.00092700002 0.049998 0 0.00091599999 0.050007999 0
0.00089299999 0.049977999 0 0.00085700001 0.050020002 0 0.000872
0.049963001 0 0.00083700003 0.050000001 0 0.00085100002 0.050161999 0
0.00081699999 0.050046001 0 0.00094 0.049986999 0 0.00075900002 0.050065 0
0.00088299997 0.050053999 0 0.00073700002 0.050019 0 0.00081900001
0.050101001 0 0.000719 0.050122999 0 0.00078100001 0.050104 0 0.00073799997
0.050106 0 0.00070199999 0.050043002 0 0.00067899999 0.050094001 0
0.00066800002 0.050122 0 0.00063899998 0.050050002 0 0.00067699997
0.050046001 0 0.00064400001 0.050103001 0 0.00053299998 0.050023999 0
0.00053700001 0.050105002 0 0.00034999999 0.050021 0 0.00043300001 0.050042
0 0.00039199999 0.050014 0 0.00038099999 0.049977001 0 0.000314 0.050007001
0 0.000313 0.050055001 0 0.00024199999 0.050099 0 0.00025799999 0.050089002
0 0.00026299999 0.05015 0 0.000239 0.050112002 0 0.00024699999 0.050108999
0 0.00019799999 0.049998 0 0.000283 0.050011002 0 0.000117 0.050147001 0
8.6e-05 0.049979001 0 4.6000001e-05 0.050046001 0 0.000137 0.050131001 0
0.000114 0.049965002 0 0.000116 0.050097 0 0.00011 0.050020002 0 0.000104
0.049970999 0 9.3000002e-05 0.050108001 0 9.4000003e-05 0.050105002 0
4.7000001e-05 0.049968999 0 6.5e-05 0.049892001 0 2.6e-05 0.049970001 0
3.7000002e-05 0.050124999 0 -9.0000003e-06 0.050050002 0 9.7999997e-05
0.050066002 0 3.3e-05 0.050105002 0 0.000112 0.049975999 0 0.000102
0.049922999 0 0.000112 0.050069001 0 1.1e-05 0.050034001 0 2.9000001e-05
0.049936999 0 -1.2e-05 0.050034001 0 -1.2e-05 0.050034001 0 7.0000001e-06
0.049844 0 9.3000002e-05 0.049904 0 0.00012300001 0.049949002 0
4.8000002e-05 0.049915001 0 0.000185 0.049975999 0 0.00021300001
0.049963001 0 0.00016700001 0.049841002 0 0.000275 0.049864002 0 0.000243
0.049961001 0 0.000287 0.049825002 0 0.00029 0.04989 0 0.00037200001
0.050035 0 0.00037600001 0.049933001 0 0.000351 0.049865 0 0.00038700001
0.049764998 0 0.000455 0.049872 0 0.00039 0.049933001 0 0.00049399998
0.049924001 0 0.00044100001 0.050025001 0 0.000421 0.050023001 0
0.00045399999 0.049975999 0 0.00048799999 0.049911 0 0.00049100001
0.049784999 0 0.00049800001 0.049952 0 0.00055200001 0.050004002 0
0.00059299998 0.049918 0 0.00063199998 0.04995 0 0.00062100001 0.049862001
0 0.00065 0.049991 0 0.00056900003 0.050002001 0 0.000657 0.050062999 0
0.00064500002 0.049984999 0 0.000665 0.049942002 0 0.00068200001
0.050062999 0 0.00074699998 0.050034001 0 0.00059000001 0.049938999 0
0.00061500003 0.049945001 0 0.00066299998 0.050023999 0 0.00067400001
0.050016999 0 0.00065 0.049975 0 0.00069800002 0.049904 0 0.00062499999
0.050021 0 0.00070199999 0.050044999 0 0.00067799998 0.049961999 0
0.00066299998 0.050097998 0 0.000688 0.050028 0 0.00069900003 0.049908999 0
0.00071400002 0.050055001 0 0.00069199997 0.049959 0 0.000696 0.049908001 0
0.000726 0.049947999 0 0.00073500001 0.049865 0 0.00066800002 0.049964 0
0.000703 0.050055001 0 0.000695 0.050025001 0 0.00075499999 0.049954001 0
0.00072399998 0.049996 0 0.00076099997 0.049809001 0 0.000849 0.049837999 0
0.00086899998 0.050016999 0 0.00096400001 0.049805999 0 0.0010169999
0.049892999 0 0.001007 0.049833 0 0.00090899999 0.049862999 0 0.00102
0.050012998 0 0.0010319999 0.049973 0 0.0010310001 0.049961999 0 0.001068
0.049989 0 0.0010629999 0.050030001 0 0.0010310001 0.050009001 0 0.001013
0.050016001 0 0.001056 0.049986001 0 0.00096799998 0.050019 0 0.001014
0.050138 0 0.0010329999 0.050002001 0 0.001074 0.050035998 0 0.00092299999
0.050088 0 0.001026 0.050065 0 0.00088599999 0.050050002 0 0.00097699999
0.050124001 0 0.00081300002 0.050152998 0 0.00089999998 0.050083999 0
0.00085999997 0.050152 0 0.00080899999 0.050080001 0 0.00079999998
0.050108999 0 0.000764 0.050138999 0 0.00076299999 0.050050002 0 0.000749
0.050048001 0 0.00071599998 0.050175998 0 0.00058699999 0.050089002 0
0.00057700003 0.050188001 0 0.000462 0.050092999 0 0.00044199999
0.050025001 0 0.000459 0.050043002 0 0.00039 0.050035 0 0.00032600001
0.050055001 0 0.00029500001 0.050066002 0 0.000321 0.050127 0 0.00025099999
0.050083999 0 0.000302 0.050152 0 0.00026900001 0.050115999 0 0.00027600001
0.050128002 0 0.000205 0.049989 0 0.00026599999 0.050065 0 9.7999997e-05
0.050223 0 0.000185 0.050023999 0 2.8e-05 0.050018001 0 0.000218 0.050074 0
0.00014800001 0.049982999 0 0.000168 0.050105002 0 0.000115 0.050048001 0
8.6e-05 0.04998 0 9.7999997e-05 0.050083 0 0.000157 0.050115999 0 8.7e-05
0.049998 0 0.000113 0.049917001 0 2.3000001e-05 0.050000001 0 3.1e-05
0.050143 0 -3.0000001e-06 0.050009999 0 0.000114 0.050026 0 8.0999998e-05
0.050088 0 0.000145 0.049958002 0 8.0999998e-05 0.049956001 0 3.2e-05
0.050089002 0 7.7999997e-05 0.050067 0 -2e-06 0.049963001 0 1.7e-05
0.050044 0 1.7e-05 0.050044 0 6.0000002e-06 0.049835999 0 6.8000001e-05
0.04984 0 0.000105 0.049975999 0 2.9000001e-05 0.049883001 0 0.00017
0.049876001 0 0.000231 0.049965002 0 0.00019399999 0.04981 0 0.00028800001
0.049826 0 0.00026599999 0.049959 0 0.000309 0.049798999 0 0.00032299999
0.049828 0 0.00043300001 0.049966998 0 0.000481 0.049931999 0 0.000451
0.049860001 0 0.00050000002 0.049736001 0 0.00048399999 0.049887002 0
0.00045200001 0.049934 0 0.000474 0.049902 0 0.00047 0.050046001 0
0.00047999999 0.050011002 0 0.00050700002 0.049929999 0 0.00058300002
0.049890999 0 0.00055400003 0.049794 0 0.00054500002 0.049931001 0 0.000581
0.049943 0 0.00067400001 0.049874 0 0.00067799998 0.049934 0 0.00069299998
0.049851 0 0.00069299998 0.050009999 0 0.00065499998 0.049993999 0 0.000718
0.050012998 0 0.00073999999 0.049995001 0 0.00069299998 0.049927 0
0.00076600001 0.050002001 0 0.00083500001 0.050071001 0 0.00072700001
0.050011002 0 0.00073799997 0.049917001 0 0.00074400002 0.050007001 0
0.00074400002 0.050009999 0 0.00077799999 0.049973998 0 0.00072399998
0.049929999 0 0.00069399999 0.050023999 0 0.00073299999 0.050032999 0
0.000695 0.049970001 0 0.00073099998 0.050078001 0 0.00073799997
0.050005998 0 0.00078300002 0.049894001 0 0.00077099999 0.050039001 0
0.00082700001 0.049972001 0 0.00074400002 0.049890999 0 0.000833 0.049943 0
0.00072700001 0.049901001 0 0.00075200002 0.049986001 0 0.000726
0.050039001 0 0.00079800002 0.049973998 0 0.00084300002 0.049929999 0
0.00083799998 0.049991 0 0.00087300001 0.049761001 0 0.00088499999
0.049789999 0 0.00095999998 0.049952 0 0.0010160001 0.049729001 0 0.001086
0.049885001 0 0.001021 0.049903002 0 0.00098500005 0.049856 0 0.0010470001
0.049938999 0 0.001122 0.04995 0 0.0011230001 0.049940001 0 0.001181
0.049963001 0 0.0011849999 0.050046001 0 0.001178 0.050026 0 0.00118
0.049995001 0 0.0012159999 0.050007999 0 0.001144 0.050041001 0 0.001182
0.050097 0 0.001202 0.049989 0 0.001183 0.050092999 0 0.001101 0.050115999
0 0.001119 0.050088 0 0.001044 0.050069999 0 0.001084 0.050173 0 0.000933
0.050195999 0 0.00099900004 0.050060999 0 0.000948 0.050193001 0
0.00092299999 0.050106 0 0.00091399997 0.050136998 0 0.00083700003
0.050158001 0 0.00085999997 0.050065 0 0.00079399999 0.050094001 0
0.00073500001 0.050262 0 0.00062300003 0.050167002 0 0.00059200003 0.050223
0 0.00058599998 0.050163999 0 0.00047200001 0.050037 0 0.00053000002
0.050071999 0 0.00040700001 0.050105002 0 0.000398 0.050106 0 0.000313
0.050057001 0 0.00039100001 0.050147001 0 0.00027799999 0.050106 0
0.00032699999 0.050133001 0 0.000313 0.050140001 0 0.00026199999
0.050170001 0 0.000206 0.050009999 0 0.000208 0.050113998 0 0.000126
0.050228 0 0.00024600001 0.050051998 0 8.6e-05 0.050009999 0 0.00025000001
0.050012 0 0.00017299999 0.050012998 0 0.000187 0.050129998 0 0.000122
0.050101001 0 9.4000003e-05 0.049986001 0 0.000105 0.050037999 0
0.00015599999 0.050113998 0 0.000107 0.050014999 0 0.00016 0.049957 0
2.4999999e-05 0.050053 0 5.9999998e-05 0.050151002 0 2.3000001e-05
0.049966998 0 0.00011 0.049982999 0 7.2000003e-05 0.050074998 0
0.00012899999 0.049977001 0 2.8e-05 0.050035998 0 -1.8999999e-05
0.050071999 0 6.5e-05 0.050069999 0 -1.8999999e-05 0.049996 0 1.7e-05
0.050048001 0 1.7e-05 0.050048001 0 4.0999999e-05 0.049844 0 4.3e-05
0.049803998 0 7.9999998e-05 0.049989 0 5.9000002e-05 0.049849998 0 0.000151
0.049772002 0 0.000237 0.049940001 0 0.00023600001 0.049782999 0
0.00029600001 0.049791001 0 0.00029600001 0.049938001 0 0.000375
0.049768999 0 0.00035300001 0.049764 0 0.00046499999 0.049876999 0
0.00052300002 0.049915999 0 0.000505 0.049844999 0 0.00056199997
0.049734998 0 0.000505 0.049913999 0 0.00052499998 0.049949002 0
0.00048300001 0.049899999 0 0.00051899999 0.050021999 0 0.00057400001
0.049984001 0 0.000581 0.049872 0 0.00067199999 0.049864002 0 0.00063000002
0.049819998 0 0.00062200002 0.049927 0 0.00063800003 0.049871001 0
0.00075299997 0.049823999 0 0.000742 0.049926002 0 0.00076299999 0.049851 0
0.00072399998 0.050021999 0 0.00074699998 0.049982999 0 0.00074500003
0.049972001 0 0.00079700002 0.050016001 0 0.00071300002 0.049911 0
0.00082000002 0.049926002 0 0.00085499999 0.050069001 0 0.00085900002
0.050039001 0 0.00085399998 0.049927 0 0.000803 0.050019 0 0.00082800002
0.049984001 0 0.00086600002 0.049998 0 0.00076199998 0.049984001 0 0.000757
0.050018001 0 0.00078499998 0.050041001 0 0.00073600002 0.049965002 0
0.00079100003 0.050053999 0 0.00076999998 0.049977001 0 0.000856
0.049874999 0 0.00080899999 0.050009999 0 0.00089899998 0.049988002 0
0.00078499998 0.049899999 0 0.00086299999 0.049968001 0 0.00073099998
0.049941 0 0.00079000002 0.049968999 0 0.00079800002 0.050003 0
0.00088299997 0.049913 0 0.000894 0.049906999 0 0.00092399999 0.049970001 0
0.00095299998 0.049759001 0 0.00089800003 0.04975 0 0.001029 0.049885999 0
0.001028 0.049679998 0 0.001085 0.049887002 0 0.001042 0.049934998 0
0.001087 0.049837999 0 0.00108 0.049876001 0 0.001182 0.049897 0 0.001199
0.049906 0 0.0012610001 0.049926002 0 0.001263 0.050032999 0 0.001319
0.050014 0 0.001317 0.049979001 0 0.0013379999 0.050020002 0 0.001301
0.050053999 0 0.00132 0.050080001 0 0.001311 0.050002001 0 0.001285
0.050133999 0 0.001253 0.050156999 0 0.001205 0.050117001 0 0.001194
0.050088 0 0.001156 0.050230999 0 0.001085 0.050239 0 0.001084 0.050069001
0 0.001025 0.050225001 0 0.0010160001 0.050117001 0 0.00099299999
0.050193999 0 0.00087300001 0.050193001 0 0.00090599997 0.050092001 0
0.00080799998 0.050174002 0 0.00074400002 0.050344002 0 0.00066800002
0.050236002 0 0.00064099999 0.050218999 0 0.00067600003 0.050218001 0
0.00054400001 0.050076 0 0.000581 0.050110999 0 0.000447 0.050163999 0
0.00047999999 0.050152 0 0.000359 0.050071001 0 0.00041400001 0.050163001 0
0.00031100001 0.050149001 0 0.00031999999 0.050115 0 0.00032699999
0.050184999 0 0.00023799999 0.050230999 0 0.00020900001 0.050046001 0
0.000162 0.050140001 0 0.00017699999 0.050188001 0 0.000249 0.05006 0
0.000157 0.050016999 0 0.00023600001 0.049982999 0 0.00016900001
0.050048001 0 0.00016900001 0.050152998 0 0.000139 0.050142001 0 0.000115
0.049993999 0 0.000105 0.050023999 0 0.000101 0.050112002 0 0.000104
0.049996998 0 0.000165 0.049998 0 3.3e-05 0.050101999 0 9.6000003e-05
0.050145999 0 4.6000001e-05 0.049961999 0 5.9999998e-05 0.049975 0 2.2e-05
0.050069999 0 6.9000002e-05 0.050002001 0 -1.5e-05 0.050105002 0 -1.7e-05
0.050053 0 2e-06 0.050065 0 -1.1e-05 0.050012998 0 -1.1e-05 0.050039999 0
-1.1e-05 0.050039999 0 7.6999997e-05 0.049867999 0 2.7e-05 0.049800999 0
7.8999998e-05 0.049959999 0 0.00013299999 0.049814999 0 0.000155 0.049695 0
0.00024199999 0.049881 0 0.000298 0.049752001 0 0.000325 0.049764998 0
0.00034500001 0.049879 0 0.00046400001 0.049743 0 0.00039 0.049736001 0
0.00047900001 0.049796999 0 0.00051799999 0.049892001 0 0.00053800002
0.049821999 0 0.00057099998 0.049736001 0 0.00053800002 0.049920999 0
0.000588 0.049959999 0 0.00052300002 0.049903002 0 0.00058599998 0.049957 0
0.00067899999 0.049947001 0 0.000665 0.049832001 0 0.00072900002 0.049842 0
0.00069000002 0.049842998 0 0.00070500001 0.049924001 0 0.00070799998
0.04981 0 0.00079199998 0.049770001 0 0.00081300002 0.049920999 0
0.00081599999 0.049871001 0 0.000764 0.050021 0 0.00083600002 0.049979001 0