# vtk DataFile Version 3.0
axinsert(project(permute(???,2,0,1),0,L2),2)
ASCII
DATASET STRUCTURED_POINTS
DIMENSIONS 128 256 1
ORIGIN 0 0 0
SPACING 1 1 1
POINT_DATA 32768
SCALARS nrrd72038 float
LOOKUP_TABLE default
0.050035495 0.050045248 0.049995009 0.049969014 0.049951136 0.049975157
0.05003912 0.050041001 0.049998 0.049987007 0.050002035 0.050005
0.050027002 0.050000086 0.049973033 0.049983058 0.050026108 0.050007176
0.049983039 0.050005 0.050014134 0.049957015 0.0499864 0.050018005
0.050001223 0.050002068 0.049991161 0.050026033 0.049974021 0.049982592
0.050034028 0.050000086 0.050002117 0.049999032 0.04998406 0.049969107
0.050019074 0.049979001 0.049973808 0.049995031 0.050015699 0.050063469
0.050022021 0.049972229 0.049981032 0.050051536 0.049975161 0.050007686
0.049975049 0.049981501 0.050037052 0.050035164 0.050027009 0.04997107
0.049995013 0.049999006 0.049988043 0.050009001 0.04999825 0.050050054
0.050007027 0.049957085 0.049969032 0.049955312 0.049999177 0.049991209
0.050024226 0.050045155 0.049992051 0.049956072 0.050033834 0.049984004
0.049976949 0.049974058 0.049964219 0.050005611 0.050043866 0.049997285
0.050021056 0.049941111 0.049997073 0.050086062 0.049996115 0.050008077
0.050036106 0.04997902 0.050006043 0.050044999 0.049944069 0.05000167
0.050022181 0.049994349 0.050004017 0.050028011 0.050046001 0.049975384
0.049987037 0.049967185 0.049967155 0.050014999 0.049994007 0.049990196
0.050053045 0.050050031 0.050004005 0.0499731 0.050010003 0.050003413
0.049988091 0.049982462 0.049929265 0.049989 0.050029069 0.05003003
0.049998019 0.050004095 0.050012033 0.049993001 0.049999047 0.049993999
0.04999207 0.050003029 0.050013002 0.050010081 0.04999401 0.04999204
0.049978033 0.049978033 0.050056044 0.050113998 0.049915064 0.049949162
0.049925029 0.050025061 0.050095085 0.050004039 0.050023057 0.049963016
0.049944092 0.050054289 0.050040044 0.050005361 0.049990132 0.04995707
0.050037146 0.050019097 0.049919132 0.049983397 0.049978167 0.049926545
0.049996246 0.050010376 0.049932476 0.050011769 0.050067633 0.050031114
0.04990381 0.049986411 0.050065462 0.05001067 0.050026257 0.050029457
0.049990185 0.050021462 0.050067 0.04989019 0.049901307 0.050009266
0.049970176 0.050073691 0.05004755 0.049987514 0.049965285 0.050058711
0.049997509 0.049996547 0.049976669 0.04991952 0.05011294 0.050026156
0.049973585 0.050049748 0.050009307 0.049986035 0.049982402 0.049922891
0.049970303 0.05006123 0.050016679 0.04996556 0.049974911 0.049933851
0.050000668 0.050022062 0.049978435 0.050052069 0.049989872 0.04989782
0.050064187 0.049972706 0.049978349 0.049974013 0.049913563 0.050014634
0.050023794 0.050017454 0.050031468 0.049950525 0.050062601 0.050159361
0.049951129 0.05001564 0.050083663 0.050063383 0.050017048 0.050004385
0.049956638 0.050011054 0.049967539 0.050059587 0.050064053 0.049959108
0.050101571 0.050000105 0.050001122 0.049931161 0.049916219 0.0500261
0.049939137 0.049961284 0.050047126 0.050091662 0.050078191 0.04997224
0.050057177 0.049998052 0.050004188 0.049940012 0.049888168 0.050003026
0.049961112 0.050074175 0.050008032 0.049988095 0.050009031 0.050078269
0.050026134 0.049993049 0.049996126 0.049991082 0.050021112 0.049970012
0.050037 0.050005004 0.049924999 0.049924999 0.049998056 0.050055057
0.049842015 0.049953271 0.049997009 0.050090067 0.050089009 0.049921118
0.05000009 0.049955271 0.049912229 0.050038338 0.049971469 0.050006114
0.050056588 0.049995825 0.050025299 0.049990721 0.049878422 0.049972117
0.049962342 0.049954057 0.050040305 0.049974967 0.049906369 0.049994718
0.05013255 0.0499756 0.049879286 0.050038721 0.050012987 0.05002008
0.050030895 0.050010104 0.049990218 0.050101463 0.050052036 0.049870864
0.049919736 0.050007533 0.04995583 0.049988452 0.050054174 0.05002803
0.049956281 0.049987212 0.050039671 0.049939066 0.049999807 0.049949866
0.050076466 0.049959306 0.049917523 0.050162323 0.049969353 0.050002374
0.050016943 0.049835123 0.049946442 0.05001637 0.049990393 0.05003098
0.050038066 0.049995665 0.050002672 0.050031547 0.04990894 0.049998377
0.050006136 0.049918231 0.050014086 0.049989276 0.050028998 0.049970783
0.049960084 0.050014652 0.049940955 0.050017171 0.050031051 0.050071288
0.050165888 0.050072186 0.050013177 0.050034981 0.050046027 0.050171308
0.050038509 0.049902912 0.04999366 0.050013959 0.049913786 0.050092928
0.050124086 0.049914531 0.050071042 0.050063595 0.04994997 0.049979161
0.049993493 0.050036341 0.049926229 0.049987249 0.049996059 0.050031319
0.050077222 0.049983643 0.05007229 0.050010428 0.05001016 0.049969405
0.050012026 0.050033011 0.049887002 0.050039038 0.050014015 0.049992081
0.049999006 0.050132111 0.050092001 0.050009008 0.049989019 0.049986001
0.05003202 0.049925007 0.050026 0.050011013 0.049940009 0.049940009
0.049941048 0.049985133 0.049837012 0.0499571 0.050028 0.05003804
0.050053176 0.04992234 0.049971201 0.049914412 0.049914543 0.049993481
0.049890753 0.049982071 0.050038218 0.050020665 0.050053209 0.049975574
0.049866322 0.050005764 0.049981993 0.049946483 0.050007042 0.049988583
0.049963854 0.049977496 0.050094035 0.049921263 0.049881864 0.050036069
0.050002161 0.050029874 0.050039988 0.049979936 0.049946044 0.050054606
0.050023649 0.04994214 0.049932018 0.05000085 0.049994972 0.049991746
0.050103717 0.049985867 0.04994474 0.049990583 0.050026476 0.049885031
0.04999081 0.049965054 0.050037023 0.049938522 0.049955823 0.050170936
0.049900055 0.05000763 0.050025288 0.049860969 0.049955197 0.050045937
0.049954493 0.050019719 0.050022874 0.049988359 0.05001061 0.049989142
0.049903594 0.05001501 0.04999733 0.049923293 0.049975097 0.049998745
0.050032146 0.049977057 0.050026078 0.050027262 0.049955163 0.050017539
0.050021913 0.050118897 0.050186288 0.05008205 0.05008788 0.050056022
0.050050639 0.050161645 0.05006497 0.049952202 0.04996993 0.049996991
0.049948137 0.050044332 0.050132804 0.049964298 0.050051324 0.050041713
0.049900837 0.050018638 0.050076228 0.050090849 0.049996618 0.050028246
0.050022222 0.050011136 0.050007328 0.049960367 0.050090443 0.05004926
0.050003156 0.050024327 0.050066002 0.050017167 0.049931008 0.050032005
0.050007999 0.049982026 0.04999502 0.05012206 0.050114024 0.050020076
0.050006002 0.050014 0.050038002 0.049919002 0.049976014 0.049995035
0.049983002 0.049983002 0.049896009 0.049950145 0.049865037 0.049965058
0.050041039 0.049964055 0.049969289 0.04991854 0.04997839 0.049868517
0.049902767 0.049994599 0.049859624 0.049932681 0.049976226 0.049988739
0.050047979 0.049969293 0.049871106 0.050017901 0.049997982 0.049940825
0.049922183 0.050009634 0.050026059 0.049969725 0.050032273 0.049879003
0.049897891 0.050008386 0.050040361 0.050033607 0.050032489 0.050003182
0.049921688 0.049947273 0.050009843 0.050030563 0.049946286 0.050005104
0.049981236 0.050017882 0.050142825 0.04992763 0.049987711 0.050017331
0.049984265 0.04991613 0.049973305 0.049950335 0.050009724 0.049908727
0.049972612 0.050147664 0.049903579 0.049976915 0.050002255 0.049916416
0.049958467 0.050077874 0.049926985 0.04998875 0.049918853 0.049929254
0.050029382 0.049952876 0.049931947 0.050020084 0.049993042 0.049937166
0.049985453 0.049982563 0.050018936 0.050057083 0.050086431 0.050011192
0.050004844 0.050041702 0.050011225 0.050126653 0.050167162 0.05011823
0.050105426 0.05006288 0.050085187 0.050134059 0.050087404 0.050043777
0.05000909 0.049989529 0.049993891 0.050008453 0.050120138 0.049992722
0.05000674 0.050010208 0.049953051 0.05005613 0.050115418 0.050130926
0.050077923 0.050077345 0.05004546 0.049998306 0.05000348 0.049950082
0.050100468 0.050102085 0.049989164 0.050085139 0.050062019 0.049990244
0.050018046 0.050055999 0.049986001 0.049936023 0.049982041 0.05011306
0.050089035 0.050047167 0.050067998 0.050032008 0.050003007 0.049956102
0.04997205 0.049960032 0.050014 0.050014 0.049859043 0.049944147
0.049889095 0.049949072 0.050036203 0.049928177 0.049893316 0.049898662
0.049972564 0.049839783 0.049897853 0.050023846 0.049874656 0.049883623
0.049885109 0.049922876 0.049995042 0.049958974 0.049912427 0.050011989
0.049994487 0.049925156 0.049836863 0.050000612 0.050047327 0.049957652
0.049985785 0.049863663 0.049933013 0.049993794 0.050079152 0.050015375
0.049992751 0.050053392 0.049943849 0.049876571 0.049998555 0.050068066
0.049976401 0.050000351 0.049937688 0.050026312 0.050126571 0.049916279
0.050056428 0.050035767 0.049944296 0.049988504 0.049958888 0.049937688
0.049990259 0.049869329 0.04995295 0.050105717 0.049967058 0.049960218
0.04998545 0.049913496 0.049924489 0.050076906 0.04989909 0.049949408
0.049816534 0.049878947 0.050048675 0.049952153 0.049959302 0.050009623
0.050001703 0.049963225 0.050015647 0.049969416 0.05000978 0.050145421
0.050088812 0.050000254 0.05005765 0.050070629 0.05002705 0.050126739
0.050153956 0.05014072 0.050122671 0.050071955 0.050117075 0.05014421
0.050091602 0.050082218 0.050085101 0.050019272 0.050072078 0.050016575
0.050094437 0.050015964 0.04998897 0.05000978 0.050035682 0.050094828
0.05011414 0.050156888 0.050120868 0.0501156 0.050033562 0.050007757
0.050089374 0.049967058 0.050083205 0.050140131 0.04997617 0.050106131
0.050035112 0.04997921 0.050091099 0.050094035 0.049970012 0.049903043
0.049971029 0.050121039 0.050065007 0.050071135 0.050108004 0.050006058
0.049951065 0.050026178 0.050009016 0.049938023 0.050031003 0.050031003
0.049829014 0.049915131 0.049908165 0.04991506 0.049996383 0.049930405
0.049843345 0.04986582 0.049951691 0.049818002 0.049888976 0.050033346
0.049902178 0.049856082 0.049793456 0.049869347 0.049936 0.049930252
0.049971562 0.05000921 0.049978673 0.049907688 0.049785126 0.049964368
0.050025966 0.049933244 0.04995786 0.049859889 0.04996806 0.049994096
0.050079063 0.049990613 0.049952585 0.050073482 0.049994823 0.049891144
0.049967628 0.050046068 0.050005447 0.049984489 0.049908958 0.050022814
0.050078042 0.04994306 0.050096303 0.050037444 0.049920604 0.050040971
0.049957749 0.049920939 0.049964245 0.049854826 0.049946118 0.050067745
0.050013926 0.04995336 0.049981292 0.049850468 0.049865656 0.050042551
0.04984754 0.049907237 0.049797084 0.049857743 0.05003649 0.049968444
0.049968153 0.050000727 0.050022695 0.049996927 0.050032359 0.04998282
0.050020687 0.050172053 0.050052743 0.050027695 0.050096106 0.050090257
0.050062452 0.050141912 0.05017063 0.050139833 0.050163072 0.050101299
0.050139971 0.050168555 0.050090227 0.050083451 0.050164893 0.050077118
0.050170045 0.050073188 0.050068598 0.050049398 0.050023042 0.050045472
0.050083332 0.050130054 0.050104924 0.05017304 0.050131861 0.050137889
0.050013587 0.050048001 0.050194219 0.050009236 0.050051052 0.050122384
0.049982235 0.050110258 0.050036177 0.049984146 0.050109133 0.050120186
0.049985062 0.049907092 0.049983017 0.050138019 0.050037999 0.050057128
0.050106037 0.049970169 0.049939103 0.050079077 0.050055016 0.049947005
0.050042 0.050042 0.04981 0.049854085 0.049930166 0.049878031 0.049915411
0.04993958 0.049805418 0.049824964 0.049939819 0.04979312 0.049847182
0.04999397 0.049915176 0.049845979 0.049733385 0.049855828 0.049911298
0.049897123 0.050015755 0.05000164 0.049945042 0.049888611 0.04977259
0.049929559 0.049976256 0.049895097 0.049937557 0.049851567 0.049991887
0.049993929 0.050041124 0.049985196 0.04993014 0.050040752 0.050046913
0.049961586 0.049929846 0.05001438 0.050016493 0.049973417 0.049912672
0.050022699 0.050043769 0.049966309 0.050095342 0.050022688 0.049907051
0.050050188 0.049966283 0.049899902 0.049943738 0.049874313 0.049965665
0.050046001 0.049999345 0.049938418 0.04998203 0.049781781 0.049807057
0.049983881 0.04977183 0.049881268 0.049848638 0.049851831 0.049979977
0.049967844 0.049955901 0.049987935 0.050046016 0.050029319 0.0500261
0.050012052 0.050047006 0.050148889 0.050026421 0.050085802 0.050129671
0.050112225 0.050096557 0.050182018 0.050211586 0.050122105 0.050213177
0.050139267 0.050165072 0.050192051 0.050101139 0.050105464 0.050248709
0.050154731 0.050241414 0.050152414 0.050063752 0.050084095 0.050090112
0.050099701 0.050090268 0.050160602 0.050112955 0.050170276 0.050146073
0.050165977 0.050016601 0.050103813 0.050248206 0.050051585 0.050031058
0.050066687 0.050006341 0.050125409 0.050076198 0.049993124 0.050076149
0.05012732 0.050012127 0.049939215 0.050024014 0.050154027 0.049998004
0.050015144 0.050090075 0.049967218 0.049990047 0.050088003 0.050077058
0.049977999 0.050051004 0.050051004 0.049804002 0.049795046 0.049950115
0.049842026 0.049808335 0.049929664 0.049773559 0.049784034 0.04992697
0.049763389 0.04977842 0.049912456 0.049906053 0.049833819 0.049712431
0.049874123 0.049914975 0.049879998 0.050020136 0.049983457 0.049891755
0.049864858 0.049787465 0.04991331 0.049906783 0.049847342 0.049923364
0.049842678 0.050008498 0.049984243 0.049991924 0.049998552 0.049915507
0.049973 0.05007109 0.050022811 0.049916897 0.050008655 0.050003778
0.049982447 0.049950182 0.05002277 0.050038408 0.049970679 0.050072435
0.049998414 0.049891502 0.050028063 0.049981374 0.049891654 0.049949229
0.049910188 0.049973801 0.050020635 0.049943093 0.049913857 0.049971007
0.049748812 0.0497596 0.049916703 0.049700703 0.049874317 0.049905952
0.049842756 0.049907718 0.049933873 0.049930163 0.049957704 0.050053917
0.050041251 0.05001032 0.050036125 0.050072417 0.050122168 0.050029423
0.050145689 0.050171845 0.05014357 0.050123192 0.050241377 0.050263368
0.050115243 0.050255932 0.050164476 0.050208088 0.050221138 0.050126601
0.050168037 0.05033889 0.050237261 0.050267749 0.050224852 0.050089244
0.050121833 0.050161343 0.050155383 0.050092462 0.050182063 0.050147146
0.050154377 0.050181299 0.050216861 0.0500446 0.050147519 0.050238311
0.050075799 0.050029196 0.050016772 0.050040398 0.05015244 0.050129227
0.050000153 0.05004216 0.050125245 0.050019152 0.049981326 0.050078019
0.050158072 0.049969018 0.049984101 0.050080042 0.049990132 0.050068002
0.050071005 0.050077021 0.050008003 0.050051998 0.050051998 0.049815033
0.049766019 0.049946081 0.049804095 0.04970729 0.049888693 0.049741823
0.049749147 0.049889214 0.04973102 0.04972269 0.049819712 0.049883351
0.04981333 0.049708966 0.049892403 0.04992779 0.049877223 0.049978796
0.04995174 0.04983779 0.049837027 0.04981247 0.049909458 0.049834687
0.049793445 0.049915496 0.049848787 0.050014056 0.049975801 0.049959369
0.05001748 0.049901951 0.0498988 0.050054301 0.050034996 0.049941793
0.050022628 0.04997436 0.050013822 0.050006989 0.050013848 0.0500484
0.049967505 0.050052401 0.049965929 0.049871672 0.050002631 0.049994327
0.049907409 0.049973473 0.049948543 0.049943324 0.049975011 0.049889427
0.049888737 0.049944527 0.049755316 0.049718942 0.049848136 0.049663022
0.049866121 0.049915839 0.049824368 0.049854953 0.049873546 0.049892336
0.049923945 0.05002993 0.050023161 0.05000202 0.050050545 0.050089523
0.050118905 0.050051421 0.050184477 0.050221879 0.050179087 0.050153937
0.050302193 0.050311007 0.050145235 0.050294798 0.050184313 0.0502805
0.050267767 0.050162189 0.050255165 0.050418049 0.050300986 0.050267596
0.050280914 0.050140202 0.050172314 0.050219797 0.050205112 0.050123896
0.050205134 0.050198328 0.050145257 0.050228328 0.050278757 0.050086632
0.050166361 0.050197512 0.050084721 0.050039403 0.050001625 0.050076339
0.050171316 0.050164271 0.050015185 0.050045129 0.050124094 0.049993131
0.050019272 0.050120026 0.050152119 0.049983036 0.049991019 0.050077002
0.050011024 0.050122004 0.050058998 0.050073002 0.050020002 0.050042003
0.050042003 0.049838077 0.049762011 0.049896102 0.049764313 0.049641348
0.049814727 0.049700242 0.049721424 0.049817655 0.049703836 0.049706064
0.049745865 0.049849227 0.049785763 0.049706042 0.049885828 0.049936574
0.04987679 0.049901728 0.049910206 0.049806092 0.049818814 0.049826358
0.049901754 0.049784869 0.049736947 0.049903683 0.049872749 0.050004885
0.049973454 0.049950093 0.050028522 0.049898956 0.049843363 0.050005466
0.050005384 0.049989861 0.050032426 0.049944829 0.050056312 0.050057188
0.050001968 0.050058436 0.049973674 0.050048076 0.0499354 0.049851991
0.049995836 0.049992085 0.049938306 0.049992062 0.049974803 0.049890686
0.049916506 0.049860973 0.049859378 0.049904458 0.049778376 0.049680721
0.049781349 0.049661644 0.049832109 0.049863975 0.049802121 0.049829289
0.049806651 0.049850944 0.049903125 0.049980607 0.049978424 0.050002798
0.050057415 0.05010068 0.050131794 0.050081182 0.050199997 0.050265651
0.050216228 0.050202265 0.050350051 0.05035283 0.050208196 0.050342098
0.05022553 0.050373223 0.050333437 0.050209198 0.050338283 0.050468449
0.050333891 0.050272658 0.050327297 0.050206203 0.050239388 0.050262291
0.050249361 0.050191354 0.050248872 0.050258357 0.050150994 0.050262202
0.050328765 0.050132733 0.050168321 0.050164688 0.050094493 0.050054513
0.050027333 0.050116181 0.050168116 0.050173253 0.050046131 0.050083064
0.050121017 0.049954083 0.050041117 0.050136033 0.050145105 0.050039038
0.050027005 0.050078001 0.050020009 0.050127011 0.050066002 0.050073028
0.050012 0.050029002 0.050029002 0.049851097 0.049753033 0.049806204
0.049720604 0.049614564 0.049723789 0.049636744 0.049693879 0.049736325
0.049685445 0.049720615 0.049707089 0.049804114 0.049749352 0.049702182
0.049850371 0.049933422 0.049867731 0.049810939 0.049861468 0.04980465
0.049819387 0.049818385 0.049881063 0.049769286 0.049688242 0.04987371
0.049894802 0.049977299 0.049970243 0.049954791 0.050029233 0.049915977
0.049818318 0.049953334 0.049970131 0.050038356 0.050026421 0.04993283
0.050093386 0.050079573 0.050003141 0.050064128 0.049992882 0.050064359
0.049926002 0.049843188 0.049999762 0.049964301 0.04996613 0.049992669
0.049976308 0.049853224 0.049863286 0.049849078 0.049818862 0.049859103
0.049791127 0.049641091 0.049720351 0.049676929 0.049768005 0.049771752
0.049775653 0.049808636 0.04974775 0.049815938 0.049902786 0.049927946
0.04992602 0.05000513 0.050058212 0.05011227 0.050140489 0.050114233
0.050201144 0.050288171 0.050263628 0.050269961 0.050386302 0.050390959
0.050287135 0.050407592 0.050305285 0.050463751 0.050415635 0.050270207
0.05040269 0.050495967 0.050354674 0.050303962 0.050375067 0.050276447
0.050317109 0.050304424 0.050290976 0.05027543 0.050317463 0.050319195
0.050163731 0.050268006 0.05035381 0.050185829 0.050172303 0.050158691
0.050116271 0.050083425 0.050088063 0.050153036 0.050143 0.050160144
0.050091024 0.050119013 0.050112005 0.049930032 0.050048016 0.050129026
0.050144035 0.050106019 0.050064031 0.050081 0.050030049 0.05009602
0.050076999 0.050075021 0.049993001 0.050021 0.050021 0.049830098
0.049717113 0.049707398 0.049671791 0.049607951 0.049633943 0.049551208
0.049656376 0.049668144 0.04967466 0.04974037 0.049698502 0.049745392
0.049700171 0.049703848 0.049796119 0.049912557 0.04984618 0.049730539
0.049806572 0.049818542 0.049832325 0.049792062 0.049853574 0.049781267
0.049660202 0.049822982 0.049895387 0.049936529 0.049952216 0.049955692
0.050021686 0.049951103 0.049827166 0.049923118 0.049956892 0.050070062
0.050015904 0.0499474 0.050113857 0.050073888 0.050027296 0.050069492
0.050018959 0.050090414 0.049953848 0.049854979 0.049993761 0.04991572
0.049977448 0.049978767 0.049951207 0.049844991 0.04982432 0.04983538
0.049767289 0.049808674 0.04977978 0.049597736 0.04966123 0.049680833
0.049687911 0.049668327 0.049735878 0.049771465 0.049702395 0.049791217
0.049906202 0.049890701 0.049882662 0.050000057 0.050057445 0.050125122
0.050138712 0.050157595 0.050201453 0.050287157 0.050321586 0.050346144
0.050418831 0.050434973 0.050363936 0.050493538 0.050417949 0.050529324
0.050505232 0.050352536 0.050457209 0.050522197 0.050397933 0.050367072
0.050425388 0.050343525 0.050390594 0.05035894 0.050338231 0.050355896
0.050393015 0.050372895 0.050178513 0.05024768 0.050357703 0.05024372
0.05019322 0.050173428 0.050149109 0.050142191 0.050171021 0.050181005
0.050111081 0.050130021 0.05013201 0.050115999 0.050097004 0.049937002
0.050048012 0.050115004 0.050151002 0.050151002 0.050078027 0.050092999
0.050054058 0.050057042 0.050072003 0.050076008 0.049968999 0.050021004
0.050021004 0.049759105 0.049653281 0.049630616 0.049611859 0.049592435
0.049561292 0.049457565 0.049603831 0.049622923 0.049662784 0.049739324
0.049704224 0.049678344 0.049638227 0.049709227 0.049737338 0.049866248
0.049814459 0.049676847 0.049753133 0.049824901 0.049845334 0.049758725
0.04982188 0.049797304 0.0496567 0.049767338 0.049871963 0.049899869
0.049919628 0.049943585 0.050013587 0.04999401 0.049865901 0.049924619
0.04997234 0.050084576 0.050018016 0.049980186 0.050118316 0.050061189
0.050072573 0.050079092 0.050050981 0.050115623 0.050012045 0.049890447
0.049964242 0.049873747 0.049965248 0.049957532 0.049914386 0.049852848
0.049793284 0.049808081 0.04971689 0.04975421 0.049747504 0.049553148
0.049595863 0.049657907 0.049610384 0.049572553 0.049673937 0.049710214
0.049667768 0.049766697 0.049892131 0.049869031 0.04985908 0.049989179
0.050060298 0.050136812 0.050133713 0.050214093 0.050216485 0.050285313
0.050385572 0.050418939 0.050457854 0.050489806 0.050438013 0.050592098
0.050543491 0.050573621 0.050594304 0.0504588 0.050524253 0.050562691
0.050485361 0.050455473 0.050483365 0.05040497 0.050448839 0.050430991
0.050396435 0.050427001 0.050453547 0.050410483 0.050201312 0.050226253
0.050348356 0.050300341 0.050235067 0.050200086 0.050187003 0.050229009
0.050250277 0.05019309 0.050081298 0.050096028 0.05014712 0.050071023
0.050085999 0.04997601 0.050051108 0.050103031 0.050160065 0.050153039
0.050067015 0.050111011 0.050085042 0.050031066 0.050043013 0.050072003
0.049947005 0.050027005 0.050027005 0.049646121 0.049574509 0.049581777
0.049540948 0.049544849 0.049508937 0.049377814 0.049537234 0.049587622
0.049641255 0.049710479 0.049697481 0.049612179 0.049570601 0.049701314
0.049678538 0.049793735 0.049771871 0.049650136 0.049709845 0.049812969
0.049845923 0.049726613 0.049787745 0.049798924 0.049667343 0.049726684
0.049835995 0.049877595 0.049887035 0.049927089 0.050008796 0.050029278
0.049928501 0.049950846 0.050002955 0.050088357 0.050040837 0.050020028
0.050118923 0.050063793 0.050127223 0.050097477 0.05009418 0.050133437
0.050079525 0.049941182 0.049925402 0.049864378 0.049932912 0.049928706
0.049883414 0.049855612 0.049764719 0.049766831 0.049676709 0.049700536
0.049703229 0.049513094 0.049517188 0.049596641 0.049536806 0.049491752
0.049594026 0.049637541 0.049634453 0.049730361 0.049845144 0.049852096
0.049853295 0.049976237 0.050070684 0.050147422 0.050136946 0.05027765
0.050257172 0.05031269 0.050446346 0.0504882 0.050515566 0.050559513
0.050519597 0.05068998 0.050665297 0.050614923 0.050678808 0.050586306
0.050619345 0.050624322 0.05060792 0.05055894 0.05055207 0.050465539
0.050491806 0.050508939 0.050468717 0.050496247 0.050490156 0.050429106
0.050240099 0.050230999 0.050332028 0.050349016 0.05028801 0.050231043
0.050221104 0.050324168 0.050294694 0.050187301 0.050064545 0.050068278
0.05013033 0.050013144 0.050082069 0.050034147 0.050064374 0.050093245
0.050160285 0.050113201 0.050042041 0.050122086 0.050101034 0.050023075
0.05000503 0.050058004 0.049933001 0.050028 0.050028 0.049509142
0.049488731 0.049545884 0.049464233 0.049460031 0.049467906 0.049326021
0.049457725 0.049540304 0.049603358 0.049653921 0.049662553 0.049554896
0.049512617 0.049661975 0.049618106 0.049704153 0.04971648 0.049640555
0.049681116 0.049782049 0.049830418 0.049694043 0.049742784 0.04978548
0.049679257 0.04971239 0.04980975 0.049872767 0.049873121 0.04992529
0.05001181 0.050051 0.04999917 0.049989268 0.05003316 0.050094731
0.050078623 0.050059561 0.050135504 0.050093029 0.050176505 0.050127897
0.050147794 0.050148241 0.050134055 0.049995303 0.04990397 0.049899384
0.049894944 0.049890734 0.04986861 0.049842119 0.049740542 0.049721025
0.049646411 0.049650382 0.049650759 0.049482532 0.049430329 0.049500398
0.049451675 0.049414974 0.049506202 0.049563441 0.0495928 0.049675118
0.049771968 0.04982863 0.049858488 0.049962297 0.050083186 0.050164606
0.050156523 0.050341167 0.050328571 0.050388496 0.050506953 0.050561469
0.050596524 0.050648123 0.050619446 0.050778367 0.050779708 0.050671898
0.050758384 0.050720528 0.050742432 0.050704401 0.050736886 0.050667718
0.050632671 0.050531559 0.050533716 0.050585173 0.050546173 0.050570007
0.050508 0.050437033 0.050293002 0.050273325 0.050313156 0.050388217
0.050344381 0.050266664 0.050249707 0.05039398 0.050293196 0.050165761
0.050069865 0.050050944 0.0500977 0.049974605 0.050084472 0.050087586
0.05008588 0.050082814 0.050142743 0.050048504 0.050014209 0.050108287
0.050079063 0.050028071 0.049976077 0.050027017 0.049929999 0.050013021
0.050013021 0.049372144 0.049398895 0.049497977 0.049393803 0.049353007
0.049420077 0.04930231 0.049362425 0.049465101 0.049542122 0.049573816
0.04959451 0.049508311 0.049469635 0.049586233 0.049548164 0.049614452
0.049649946 0.049633883 0.04966493 0.04973438 0.049792752 0.049656328
0.049688023 0.049765855 0.049688 0.049722992 0.049804177 0.049878143
0.049883269 0.049946554 0.050025541 0.050060689 0.050061386 0.050028756
0.050064329 0.050116807 0.050125606 0.05010495 0.050183691 0.050144225
0.050216634 0.050173245 0.050208934 0.050171178 0.05017155 0.05004447
0.049922526 0.049965587 0.049869511 0.049850114 0.049865872 0.049816165
0.049728092 0.049684402 0.049621418 0.049603634 0.049583782 0.049457513
0.049344551 0.049381185 0.049336918 0.049328838 0.049415432 0.049489804
0.049539395 0.049603835 0.049690861 0.049800638 0.049864195 0.049942587
0.050088353 0.050197646 0.05019585 0.050402984 0.050430555 0.05051386
0.0505808 0.050649386 0.050702181 0.0507599 0.0507483 0.05086397
0.050891761 0.050755005 0.050840914 0.050848801 0.050877064 0.050800432
0.050852869 0.050774757 0.050725531 0.05060906 0.050592043 0.050651047
0.050621018 0.050637469 0.050519243 0.05045059 0.050358403 0.050337411
0.050298084 0.050421271 0.050400488 0.050306112 0.05027613 0.05041061
0.050252944 0.050140742 0.050091494 0.050046217 0.050066456 0.049969774
0.050078534 0.050116535 0.050105654 0.050071727 0.050100479 0.049983948
0.049987752 0.050058603 0.050016202 0.050031103 0.049961165 0.049973048
0.049938001 0.049979076 0.049979076 0.049249131 0.04930098 0.049417078
0.049335625 0.049240973 0.049351253 0.049295846 0.049257483 0.049359046
0.049452376 0.049475227 0.049501088 0.049464051 0.049436808 0.049482144
0.049467146 0.049538326 0.049575698 0.049616653 0.049645875 0.04966905
0.04972855 0.049614515 0.049631629 0.049746424 0.049696848 0.049749419
0.049819004 0.049883444 0.049906291 0.049983311 0.050049845 0.050065931
0.050100729 0.050065678 0.050104622 0.050161533 0.050179046 0.050165709
0.050267514 0.050206646 0.050253727 0.05023725 0.050269779 0.05021305
0.050205201 0.050094794 0.049987696 0.050040781 0.049873523 0.049825903
0.049867827 0.04978874 0.049733724 0.049662165 0.049593337 0.04955348
0.049498167 0.049419075 0.049267162 0.049251612 0.04919095 0.049225975
0.049320672 0.049408689 0.049470626 0.049521305 0.049618106 0.049776431
0.049863741 0.049917247 0.050083071 0.050253719 0.050260171 0.050469674
0.050555933 0.050673671 0.050682519 0.050761215 0.050825544 0.050890259
0.05091124 0.05096259 0.051008478 0.050863121 0.050939646 0.050968997
0.051007923 0.050907891 0.05095147 0.050874118 0.050828006 0.050702106
0.050676286 0.05069983 0.050688639 0.050687686 0.050533142 0.050482959
0.050428808 0.050404277 0.050296996 0.050449405 0.050450496 0.050346408
0.05030245 0.050380033 0.050195325 0.050117578 0.05012079 0.050053272
0.05004596 0.049988769 0.050056268 0.050107051 0.050109636 0.050064869
0.050036442 0.049935568 0.049956746 0.049975011 0.049935542 0.050013259
0.04994427 0.049902104 0.049946003 0.049924113 0.049924113 0.049144112
0.049187973 0.049297221 0.049285449 0.049137209 0.049252238 0.049285859
0.049150079 0.049236264 0.049330801 0.049359083 0.049397882 0.049406756
0.049400933 0.049368884 0.04938234 0.049479563 0.049497359 0.049579602
0.049610477 0.049587987 0.049639162 0.049571872 0.049583677 0.049728204
0.049709175 0.049781963 0.049844999 0.049884725 0.049930815 0.050018914
0.050080877 0.050076261 0.050115313 0.050102543 0.050163839 0.050229628
0.050245218 0.050250161 0.050374359 0.050274536 0.050302904 0.050317701
0.050326478 0.050278284 0.050256364 0.050157599 0.050087623 0.050108846
0.049913637 0.04983449 0.04987533 0.049774885 0.049754336 0.049655791
0.049558576 0.049487356 0.049395096 0.049346294 0.0491881 0.049122375
0.049024183 0.049106672 0.049215 0.049312308 0.049385566 0.049430743
0.049558192 0.049762424 0.049852137 0.049894229 0.050076544 0.050333582
0.050350349 0.050550245 0.050697457 0.050846212 0.050818808 0.050898746
0.050960474 0.051037658 0.051103912 0.051088877 0.051135723 0.050991792
0.051070258 0.051088993 0.051126499 0.051022071 0.051040001 0.050966077
0.050937351 0.050810978 0.050777722 0.050737582 0.050747424 0.05072375
0.050555181 0.05053832 0.050496675 0.050461013 0.05031611 0.050471842
0.050484497 0.050385442 0.050328538 0.050326135 0.050139759 0.050098389
0.050149128 0.050067049 0.050029472 0.050002225 0.050019402 0.05006402
0.050088912 0.050055042 0.049962413 0.049908444 0.049913868 0.049871508
0.049860056 0.049964659 0.049901385 0.049826171 0.049940024 0.049856085
0.049856085 0.049052104 0.049058899 0.049143407 0.049219992 0.04903996
0.049127012 0.049248517 0.049052317 0.049114998 0.049182281 0.049229193
0.049291655 0.049327455 0.049344592 0.049261656 0.049303286 0.049433257
0.049416326 0.049518056 0.049548715 0.049496248 0.049537107 0.049533419
0.049551573 0.049706753 0.049722888 0.049812075 0.049868356 0.049881537
0.049946804 0.050041638 0.050113298 0.050096042 0.05011905 0.050143525
0.050240595 0.050312936 0.050332408 0.050358217 0.050486907 0.050349124
0.050377354 0.050414752 0.050386216 0.050364498 0.050337326 0.050245743
0.050211702 0.050171785 0.049984578 0.049883243 0.049896609 0.049786843
0.04978345 0.049653672 0.049513798 0.049403548 0.049285844 0.049231391
0.049090035 0.048993818 0.048852727 0.048979491 0.049099617 0.049198274
0.049283206 0.049330741 0.049500223 0.049755208 0.0498343 0.049890578
0.050092246 0.050431721 0.050464362 0.050651584 0.050848339 0.051016983