# vtk DataFile Version 3.0
axinsert(project(???,0,L2),2)
ASCII
DATASET STRUCTURED_POINTS
DIMENSIONS 256 1 1
ORIGIN 0 0 0
SPACING 1 1 1
POINT_DATA 256
SCALARS nrrd68430 float
LOOKUP_TABLE default
0 0 0 0 0 0 0 0 0 0 0 0 0 0 0 0 0 0 0 0 0 0 0 0 0 0 0 0 0 2.4494898e-06
1.8867962e-05 0.0001347108 0.00094434473 0.0062881629 0.038864203
0.21499425 0.97520816 2.2960126 1.4384538 1.5393941 1.3571843 0.94403142
1.1613849 1.5660824 1.8227609 1.7563365 1.5225275 1.8018816 1.7564813
1.6493795 2.0459299 2.4805415 2.0971296 1.623988 1.2945598 1.1043023
0.99974442 0.93799537 0.89709812 0.86730582 0.84385628 0.82417637
0.80707175 0.79172641 0.7778399 0.7650457 0.75321668 0.74220526 0.73188448
0.72214842 0.71291155 0.70412362 0.69572383 0.68763924 0.67987067
0.67209262 0.66438466 0.65678424 0.64919758 0.64170885 0.63446283 0.6276719
0.62164563 0.61619353 0.6112541 0.60661578 0.60163301 0.59642351 0.59051704
0.58366495 0.57671839 0.57045382 0.56527817 0.56200141 0.56076103
0.56060386 0.56066066 0.55971223 0.55779594 0.55465835 0.5474422 0.54164225
0.53571749 0.53010309 0.5258972 0.52300417 0.51982063 0.51551592 0.51037091
0.50600159 0.50271267 0.49830794 0.493211 0.48874652 0.49059442 0.53431356
0.62057954 0.70467812 0.75858027 0.76731557 0.75523865 0.73945886
0.73982888 0.75595009 0.75150526 0.67722332 0.56907052 0.40595561
0.40595561 0.32352257 0.23940232 0.19765921 0.24521726 0.37059656
0.42024657 0.41135475 0.37304136 0.32626542 0.29594049 0.28184259 0.2742224
0.26743734 0.26110953 0.25665301 0.25486755 0.25714576 0.26302123
0.27150977 0.2817196 0.29297486 0.30421466 0.31460062 0.32402003 0.33218184
0.33953771 0.34613806 0.35306036 0.35994396 0.36803797 0.37581173
0.38225484 0.38920078 0.3956624 0.39965683 0.40598613 0.41616246 0.43658456
0.4671081 0.50591332 0.54773408 0.59113687 0.6356619 0.68155348 0.72705531
0.77007753 0.80918843 0.84237832 0.86830902 0.88834941 0.90153801
0.90615648 0.90156907 0.88692445 0.86165267 0.82725871 0.78609878
0.74163181 0.69625682 0.65178031 0.60970896 0.56958538 0.53057081
0.49031854 0.44696179 0.40064266 0.35242632 0.3037737 0.2531189 0.19192572
0.1119516 0.039663915 0.0055797091 0.00053911965 4.6432746e-05
3.8729831e-06 0 0 0 0 0 0 0 0 0 0 0 0 0 0 0 0 0 0 0 0 0 0 0 0 0 0 0 0 0 0 0
0 0 0 0 0 0 0 0 0 0 0 0 0 0 0 0 0 0 0 0
